 Entering Gaussian System, Link 0=g16
 Initial command:
 /share/apps/g16/c.01/g16/l1.exe "/uhpc/cheung/pzhang5/SPQM_Ca/WholeLoops/NNClusterSymmetryFunctionAsFeatures/MD_afterEM/loop1.cluster1/Gau-24700.inp" -scrdir="/uhpc/cheung/pzhang5/SPQM_Ca/WholeLoops/NNClusterSymmetryFunctionAsFeatures/MD_afterEM/loop1.cluster1/"
 Entering Link 1 = /share/apps/g16/c.01/g16/l1.exe PID=     24703.
  
 Copyright (c) 1988-2019, Gaussian, Inc.  All Rights Reserved.
  
 This is part of the Gaussian(R) 16 program.  It is based on
 the Gaussian(R) 09 system (copyright 2009, Gaussian, Inc.),
 the Gaussian(R) 03 system (copyright 2003, Gaussian, Inc.),
 the Gaussian(R) 98 system (copyright 1998, Gaussian, Inc.),
 the Gaussian(R) 94 system (copyright 1995, Gaussian, Inc.),
 the Gaussian 92(TM) system (copyright 1992, Gaussian, Inc.),
 the Gaussian 90(TM) system (copyright 1990, Gaussian, Inc.),
 the Gaussian 88(TM) system (copyright 1988, Gaussian, Inc.),
 the Gaussian 86(TM) system (copyright 1986, Carnegie Mellon
 University), and the Gaussian 82(TM) system (copyright 1983,
 Carnegie Mellon University). Gaussian is a federally registered
 trademark of Gaussian, Inc.
  
 This software contains proprietary and confidential information,
 including trade secrets, belonging to Gaussian, Inc.
  
 This software is provided under written license and may be
 used, copied, transmitted, or stored only in accord with that
 written license.
  
 The following legend is applicable only to US Government
 contracts under FAR:
  
                    RESTRICTED RIGHTS LEGEND
  
 Use, reproduction and disclosure by the US Government is
 subject to restrictions as set forth in subparagraphs (a)
 and (c) of the Commercial Computer Software - Restricted
 Rights clause in FAR 52.227-19.
  
 Gaussian, Inc.
 340 Quinnipiac St., Bldg. 40, Wallingford CT 06492
  
  
 ---------------------------------------------------------------
 Warning -- This program may not be used in any manner that
 competes with the business of Gaussian, Inc. or will provide
 assistance to any competitor of Gaussian, Inc.  The licensee
 of this program is prohibited from giving any competitor of
 Gaussian, Inc. access to this program.  By using this program,
 the user acknowledges that Gaussian, Inc. is engaged in the
 business of creating and licensing software in the field of
 computational chemistry and represents and warrants to the
 licensee that it is not a competitor of Gaussian, Inc. and that
 it will not use this program in any manner prohibited above.
 ---------------------------------------------------------------
  

 Cite this work as:
 Gaussian 16, Revision C.01,
 M. J. Frisch, G. W. Trucks, H. B. Schlegel, G. E. Scuseria, 
 M. A. Robb, J. R. Cheeseman, G. Scalmani, V. Barone, 
 G. A. Petersson, H. Nakatsuji, X. Li, M. Caricato, A. V. Marenich, 
 J. Bloino, B. G. Janesko, R. Gomperts, B. Mennucci, H. P. Hratchian, 
 J. V. Ortiz, A. F. Izmaylov, J. L. Sonnenberg, D. Williams-Young, 
 F. Ding, F. Lipparini, F. Egidi, J. Goings, B. Peng, A. Petrone, 
 T. Henderson, D. Ranasinghe, V. G. Zakrzewski, J. Gao, N. Rega, 
 G. Zheng, W. Liang, M. Hada, M. Ehara, K. Toyota, R. Fukuda, 
 J. Hasegawa, M. Ishida, T. Nakajima, Y. Honda, O. Kitao, H. Nakai, 
 T. Vreven, K. Throssell, J. A. Montgomery, Jr., J. E. Peralta, 
 F. Ogliaro, M. J. Bearpark, J. J. Heyd, E. N. Brothers, K. N. Kudin, 
 V. N. Staroverov, T. A. Keith, R. Kobayashi, J. Normand, 
 K. Raghavachari, A. P. Rendell, J. C. Burant, S. S. Iyengar, 
 J. Tomasi, M. Cossi, J. M. Millam, M. Klene, C. Adamo, R. Cammi, 
 J. W. Ochterski, R. L. Martin, K. Morokuma, O. Farkas, 
 J. B. Foresman, and D. J. Fox, Gaussian, Inc., Wallingford CT, 2019.
 
 ******************************************
 Gaussian 16:  ES64L-G16RevC.01  3-Jul-2019
                26-Feb-2020 
 ******************************************
 %chk=loop1.cluster1.chk
 %nprocshared=48
 Will use up to   48 processors via shared memory.
 %mem=10GB
 %nosave
 ----------------------------------------------------------------------
 #b3lyp/svp scf=(tight,noincore,xqc) Test #IOP(5/87=12) Density=Current
  Pop=(MK,readradii) iop(6/33=2) iop(6/42=6)
 ----------------------------------------------------------------------
 1/30=1,38=1,172=1/1;
 2/12=2,17=6,18=5,40=1/2;
 3/5=18,7=101,11=2,25=1,30=1,74=-5/1,2,3;
 4//1;
 5/5=4,8=3,13=1,32=2,38=5,87=12/2,8;
 6/7=2,8=2,9=2,10=2,15=8,20=101,22=-1,28=1,33=2,42=6/1,2;
 99/5=1,9=1/99;
 --------------
 loop1.cluster1
 --------------
 Symbolic Z-matrix:
 Charge =  0 Multiplicity = 1
 C                     57.75094   38.77367   29.67767 
 C                     58.70209   37.87235   28.96222 
 O                     58.37729   36.72479   28.73086 
 H                     56.79872   38.24176   29.88412 
 H                     58.20574   39.09846   30.63614 
 H                     57.54008   39.6625   29.0462 
 N                     59.90253   38.34675   28.55286 
 C                     60.87968   37.54133   27.82419 
 C                     61.62364   36.66078   28.82799 
 O                     62.64334   37.07585   29.36364 
 C                     61.76847   38.54051   27.0807 
 C                     62.87751   38.0876   26.20484 
 O                     63.71314   38.92307   25.92098 
 O                     62.92188   36.89603   25.57779 
 H                     60.11009   39.34326   28.73539 
 H                     60.37803   36.93959   27.03913 
 H                     62.2364   39.19693   27.84077 
 H                     61.1285   39.18637   26.4363 
 N                     61.05557   35.49159   29.24481 
 C                     61.53295   34.70945   30.38092 
 C                     62.75201   33.83965   30.10549 
 O                     63.34168   33.34783   31.05787 
 C                     60.36841   33.88771   30.95682 
 C                     59.3056   34.83111   31.54738 
 C                     58.33149   34.07999   32.44772 
 C                     57.26373   35.03336   33.0082 
 N                     56.77652   34.56436   34.30369 
 H                     60.15869   35.22403   28.8342 
 H                     61.85575   35.42198   31.17323 
 H                     60.76046   33.24074   31.76625 
 H                     59.91115   33.23834   30.17336 
 H                     58.77522   35.38393   30.74896 
 H                     59.81326   35.57774   32.20113 
 H                     58.94707   33.67356   33.27898 
 H                     57.83974   33.22945   31.92554 
 H                     56.43152   35.12123   32.27252 
 H                     57.68501   36.05128   33.16331 
 H                     56.00697   35.19186   34.62928 
 H                     56.43462   33.57909   34.24646 
 H                     57.55986   34.62461   34.99727 
 N                     63.23389   33.67997   28.84538 
 C                     64.58041   33.16692   28.5678 
 C                     65.48134   34.32775   28.14559 
 O                     66.69455   34.17401   28.20632 
 C                     64.58118   32.0248   27.51827 
 C                     63.60531   32.31179   26.42344 
 O                     62.62885   31.59921   26.26504 
 O                     63.76143   33.42444   25.70086 
 H                     62.68439   34.06159   28.0659 
 H                     65.04896   32.76765   29.49703 
 H                     64.28125   31.07289   27.99977 
 H                     65.60406   31.89204   27.09659 
 N                     64.96686   35.54642   27.78921 
 C                     65.79658   36.71294   27.56391 
 C                     66.38037   36.81499   26.16482 
 O                     67.18731   37.70367   25.94326 
 H                     63.95488   35.69044   27.7573 
 H                     66.59197   36.7412   28.33802 
 H                     65.18046   37.62096   27.73493 
 N                     66.006    35.96528   25.16135 
 C                     66.59671   36.01046   23.8147 
 C                     66.36942   37.32155   23.04118 
 O                     66.97642   37.5      21.99292 
 C                     66.14363   34.77239   22.99399 
 C                     64.65599   34.56648   22.87646 
 O                     63.89509   35.50783   22.94665 
 O                     64.1529   33.3176   22.86277 
 H                     65.31244   35.23934   25.36814 
 H                     67.69591   35.91846   23.94165 
 H                     66.53565   33.87126   23.51134 
 H                     66.58996   34.78345   21.97827 
 N                     65.5083   38.27184   23.49134 
 C                     65.27771   39.56336   22.85345 
 C                     63.90461   39.65634   22.20946 
 O                     63.5421   40.72356   21.74375 
 H                     64.96014   38.04963   24.31499 
 H                     66.03687   39.78926   22.07505 
 H                     65.35797   40.34926   23.6384 
 N                     63.11212   38.55082   22.10919 
 C                     61.79131   38.54885   21.48739 
 C                     60.75614   37.99434   22.45245 
 O                     61.09957   37.37821   23.44632 
 C                     61.79076   37.7634   20.13285 
 C                     62.5737   38.50474   19.05335 
 O                     62.2683   36.44731   20.225 
 H                     63.45983   37.67356   22.47834 
 H                     61.48029   39.58937   21.26622 
 H                     60.74386   37.68742   19.76908 
 H                     63.05983   36.41355   20.81191 
 H                     63.62437   38.66956   19.36847 
 H                     62.5687   37.91521   18.11095 
 H                     62.08544   39.48246   18.85639 
 N                     59.4389   38.23625   22.20243 
 C                     58.34979   37.75669   23.0462 
 C                     57.45399   36.88559   22.18411 
 O                     57.10218   37.2676   21.08032 
 C                     57.54729   38.94348   23.65569 
 C                     58.44167   39.75314   24.63124 
 C                     56.30284   38.42814   24.42081 
 C                     57.78446   41.04514   25.12379 
 H                     59.19395   38.79552   21.37487 
 H                     58.72742   37.16176   23.90392 
 H                     57.2094   39.59014   22.81729 
 H                     59.39052   40.04113   24.13292 
 H                     58.69772   39.11669   25.50936 
 H                     56.61092   37.83044   25.30392 
 H                     55.6571   39.25712   24.76416 
 H                     55.65555   37.80371   23.77796 
 H                     57.59894   41.72195   24.26345 
 H                     56.82913   40.8596   25.65296 
 H                     58.46148   41.55299   25.84124 
 N                     56.98699   35.72057   22.69906 
 C                     56.1088   34.80742   21.99084 
 C                     54.6965   34.8776   22.53907 
 O                     54.43188   35.57037   23.5047 
 C                     56.66753   33.36131   22.13178 
 C                     58.01517   33.21478   21.42725 
 O                     56.7662   32.98196   23.48301 
 H                     57.23765   35.48838   23.65115 
 H                     56.03527   35.08767   20.92007 
 H                     55.98365   32.63103   21.65543 
 H                     57.68104   33.16593   23.81442 
 H                     58.41837   32.19523   21.60794 
 H                     57.88543   33.37545   20.33974 
 H                     58.73068   33.96004   21.82779 
 N                     53.73181   34.14932   21.9179 
 C                     52.35929   34.01549   22.40399 
 C                     52.38564   33.37658   23.7789 
 O                     51.69585   33.83221   24.68341 
 C                     51.55597   33.13709   21.40291 
 C                     51.40818   33.87298   20.049 
 O                     52.18257   31.87816   21.25883 
 H                     54.00811   33.6178   21.08317 
 H                     51.8542   35.00512   22.46841 
 H                     50.53023   32.9709   21.79732 
 H                     52.18833   31.6047   20.30477 
 H                     50.87132   34.8343   20.19143 
 H                     52.39409   34.08807   19.58545 
 H                     50.82509   33.25297   19.33642 
 N                     53.22214   32.33226   24.00758 
 C                     53.38232   31.67315   25.29311 
 C                     53.87779   32.6414   26.36985 
 O                     53.35291   32.63014   27.47225 
 C                     54.31098   30.44408   25.1333 
 C                     53.72582   29.45825   24.08622 
 C                     54.26455   28.03815   24.25512 
 C                     53.69527   27.09249   23.18376 
 N                     54.21263   25.73675   23.36598 
 H                     53.79877   32.00486   23.2185 
 H                     52.40332   31.26424   25.629 
 H                     54.3649   29.94543   26.12328 
 H                     55.34682   30.73099   24.83393 
 H                     53.9452   29.82371   23.05739 
 H                     52.62238   29.39818   24.2015 
 H                     53.96051   27.66735   25.25908 
 H                     55.37193   28.04668   24.18797 
 H                     53.9851   27.46172   22.1751 
 H                     52.58198   27.07013   23.23605 
 H                     53.88673   25.13195   22.57783 
 H                     55.25835   25.75029   23.36948 
 H                     53.86295   25.33869   24.26792 
 N                     54.8767   33.52436   26.09809 
 C                     55.38268   34.50154   27.06775 
 C                     54.33754   35.53696   27.44924 
 O                     54.36426   35.99975   28.58208 
 C                     56.65909   35.15819   26.51616 
 C                     57.81055   34.12819   26.57328 
 C                     59.10329   34.55061   25.94964 
 O                     59.17377   34.83669   24.76899 
 O                     60.22501   34.48081   26.67312 
 H                     55.27738   33.51629   25.15733 
 H                     55.67115   33.97888   28.00543 
 H                     56.93399   36.05566   27.08719 
 H                     56.42734   35.51083   25.50671 
 H                     57.50437   33.18274   26.08926 
 H                     58.01584   33.90514   27.64427 
 N                     53.33879   35.88679   26.59111 
 C                     52.23511   36.74429   26.97466 
 H                     51.30294   36.14222   26.93501 
 H                     52.33899   37.14633   28.00446 
 H                     52.1414   37.5942   26.26744 
 H                     53.32457   35.49102   25.64578 
 Ca                    62.19104   34.85014   25.03132 
 O                     61.21703   33.96641   21.98065 
 H                     61.55041   34.56918   21.28265 
 H                     61.04022   33.13019   21.48449 
 O                     60.87069   32.27433   24.14378 
 H                     60.08634   31.70847   23.93934 
 H                     61.64667   31.67107   24.03038 
 
 Stoichiometry    C54H93CaN15O26
 Framework group  C1[X(C54H93CaN15O26)]
 Deg. of freedom   561
 Full point group                 C1      NOp   1
 Largest Abelian subgroup         C1      NOp   1
 Largest concise Abelian subgroup C1      NOp   1
                         Standard orientation:                         
 ---------------------------------------------------------------------
 Center     Atomic      Atomic             Coordinates (Angstroms)
 Number     Number       Type             X           Y           Z
 ---------------------------------------------------------------------
      1          6           0       -0.059848    3.519304   -4.767102
      2          6           0        0.471002    3.008285   -3.468645
      3          8           0       -0.235725    3.040242   -2.481005
      4          1           0       -1.112727    3.850406   -4.648398
      5          1           0        0.559257    4.376437   -5.103297
      6          1           0       -0.017814    2.709945   -5.526316
      7          7           0        1.720061    2.488786   -3.408148
      8          6           0        2.306042    1.943363   -2.186009
      9          6           0        2.800028    3.107107   -1.326860
     10          8           0        3.942529    3.524651   -1.465931
     11          6           0        3.407564    0.986168   -2.645914
     12          6           0        4.221655    0.217659   -1.671810
     13          8           0        5.259157   -0.254454   -2.093192
     14          8           0        3.812266   -0.131331   -0.436656
     15          1           0        2.262203    2.444078   -4.287644
     16          1           0        1.566098    1.317103   -1.647174
     17          1           0        4.131825    1.576420   -3.241396
     18          1           0        2.964746    0.223399   -3.327121
     19          7           0        1.914520    3.779113   -0.534565
     20          6           0        2.202487    5.053608    0.115909
     21          6           0        3.033991    4.961286    1.388151
     22          8           0        3.507787    5.991046    1.848300
     23          6           0        0.886298    5.811752    0.352417
     24          6           0        0.253626    6.193127   -0.997623
     25          6           0       -0.831809    7.249618   -0.826331
     26          6           0       -1.468454    7.599521   -2.181105
     27          7           0       -1.968231    8.972785   -2.181474
     28          1           0        0.947351    3.449352   -0.513950
     29          1           0        2.811941    5.664790   -0.587424
     30          1           0        1.110410    6.738916    0.915968
     31          1           0        0.172348    5.196994    0.949850
     32          1           0       -0.130714    5.299278   -1.524600
     33          1           0        1.035855    6.659260   -1.640587
     34          1           0       -0.315923    8.142069   -0.410985
     35          1           0       -1.622095    6.934535   -0.109338
     36          1           0       -2.285268    6.873425   -2.398176
     37          1           0       -0.720905    7.520580   -3.001249
     38          1           0       -2.453756    9.161711   -3.087313
     39          1           0       -2.621801    9.138946   -1.383874
     40          1           0       -1.151770    9.625750   -2.108459
     41          7           0        3.322904    3.761410    1.955963
     42          6           0        4.392489    3.586570    2.945309
     43          6           0        5.587320    2.906848    2.276118
     44          8           0        6.680821    2.984327    2.821513
     45          6           0        3.921537    2.815209    4.205927
     46          6           0        3.004501    1.696750    3.829852
     47          8           0        1.836807    1.712244    4.179974
     48          8           0        3.457553    0.744370    3.009973
     49          1           0        2.865367    2.924081    1.575552
     50          1           0        4.781278    4.574885    3.283690
     51          1           0        3.365721    3.498848    4.877968
     52          1           0        4.800968    2.420055    4.764657
     53          7           0        5.477999    2.296863    1.054307
     54          6           0        6.625123    1.808838    0.315454
     55          6           0        7.084540    0.414316    0.706505
     56          8           0        8.118251   -0.008419    0.213828
     57          1           0        4.572763    2.247034    0.581098
     58          1           0        7.449331    2.547247    0.405590
     59          1           0        6.363360    1.783099   -0.763513
     60          7           0        6.362542   -0.371839    1.560783
     61          6           0        6.814154   -1.702753    1.995709
     62          6           0        6.968652   -2.743668    0.872509
     63          8           0        7.506030   -3.813220    1.130243
     64          6           0        5.905189   -2.223905    3.141940
     65          6           0        4.429460   -2.273815    2.843582
     66          8           0        4.033975   -2.403374    1.704792
     67          8           0        3.540724   -2.004901    3.818682
     68          1           0        5.488098   -0.000909    1.946185
     69          1           0        7.826922   -1.572852    2.431883
     70          1           0        6.019176   -1.525467    3.997835
     71          1           0        6.238905   -3.222684    3.491360
     72          7           0        6.515354   -2.503346   -0.386057
     73          6           0        6.672144   -3.407626   -1.519985
     74          6           0        5.357144   -4.038435   -1.946163
     75          8           0        5.330603   -4.723567   -2.954700
     76          1           0        5.998984   -1.643940   -0.537847
     77          1           0        7.391850   -4.226447   -1.308284
     78          1           0        7.077580   -2.816685   -2.372415
     79          7           0        4.236701   -3.881867   -1.184348
     80          6           0        2.941191   -4.470747   -1.510006
     81          6           0        1.869444   -3.393760   -1.553108
     82          8           0        2.074327   -2.292905   -1.071987
     83          6           0        2.560798   -5.618301   -0.514953
     84          6           0        3.447748   -6.844883   -0.706570
     85          8           0        2.579874   -5.244013    0.837147
     86          1           0        4.304014   -3.332656   -0.335469
     87          1           0        2.975576   -4.912166   -2.526027
     88          1           0        1.520537   -5.942742   -0.731049
     89          1           0        3.363423   -4.674424    1.020835
     90          1           0        4.516810   -6.587551   -0.560761
     91          1           0        3.164445   -7.633707    0.023625
     92          1           0        3.296944   -7.246532   -1.730808
     93          7           0        0.690957   -3.673963   -2.176651
     94          6           0       -0.417170   -2.731115   -2.282379
     95          6           0       -1.623530   -3.367923   -1.616314
     96          8           0       -1.923741   -4.524173   -1.863322
     97          6           0       -0.722837   -2.388387   -3.770014
     98          6           0        0.471719   -1.627344   -4.403268
     99          6           0       -1.995628   -1.512330   -3.880326
    100          6           0        0.327200   -1.423770   -5.913721
    101          1           0        0.574240   -4.601347   -2.605575
    102          1           0       -0.185066   -1.768160   -1.781303
    103          1           0       -0.898734   -3.344436   -4.308794
    104          1           0        1.414759   -2.189185   -4.240208
    105          1           0        0.577641   -0.633754   -3.910028
    106          1           0       -1.827530   -0.523104   -3.405758
    107          1           0       -2.296362   -1.352173   -4.931985
    108          1           0       -2.867405   -1.993009   -3.399590
    109          1           0        0.302485   -2.409844   -6.423350
    110          1           0       -0.585166   -0.854381   -6.179211
    111          1           0        1.194689   -0.844982   -6.292495
    112          7           0       -2.404134   -2.602446   -0.813049
    113          6           0       -3.594438   -3.080138   -0.133621
    114          6           0       -4.849257   -2.542714   -0.794436
    115          8           0       -4.782791   -1.750543   -1.716631
    116          6           0       -3.538057   -2.630610    1.355682
    117          6           0       -2.383044   -3.302769    2.096030
    118          8           0       -3.452972   -1.230361    1.463052
    119          1           0       -2.162418   -1.625911   -0.707360
    120          1           0       -3.664255   -4.185317   -0.198433
    121          1           0       -4.464773   -2.925068    1.887099
    122          1           0       -2.503668   -0.959615    1.541334
    123          1           0       -2.327448   -2.906650    3.132708
    124          1           0       -2.546860   -4.397142    2.124955
    125          1           0       -1.428297   -3.085961    1.577137
    126          7           0       -6.051707   -2.975213   -0.331911
    127          6           0       -7.342430   -2.453858   -0.779380
    128          6           0       -7.409453   -0.972268   -0.463662
    129          8           0       -7.826428   -0.181843   -1.302058
    130          6           0       -8.476563   -3.225799   -0.046631
    131          6           0       -8.489502   -4.706751   -0.497254
    132          8           0       -8.319232   -3.096439    1.352227
    133          1           0       -6.042128   -3.675482    0.419862
    134          1           0       -7.482153   -2.603014   -1.873392
    135          1           0       -9.460436   -2.791193   -0.326689
    136          1           0       -8.488398   -3.966563    1.798670
    137          1           0       -8.661627   -4.773167   -1.592061
    138          1           0       -7.532842   -5.219066   -0.261678
    139          1           0       -9.305638   -5.257239    0.015641
    140          7           0       -6.950987   -0.529483    0.734829
    141          6           0       -6.906890    0.867669    1.133190
    142          6           0       -6.025345    1.697539    0.196941
    143          8           0       -6.425288    2.781911   -0.196879
    144          6           0       -6.457362    0.971188    2.611625
    145          6           0       -7.426373    0.175285    3.527161
    146          6           0       -7.377676    0.646596    4.980067
    147          6           0       -8.320552   -0.182060    5.869155
    148          7           0       -8.269362    0.288307    7.253002
    149          1           0       -6.587531   -1.234188    1.393336
    150          1           0       -7.932680    1.298193    1.103629
    151          1           0       -6.485639    2.046054    2.886363
    152          1           0       -5.415543    0.602482    2.765162
    153          1           0       -7.189130   -0.911596    3.476321
    154          1           0       -8.472422    0.315247    3.179785
    155          1           0       -7.698376    1.711498    5.011772
    156          1           0       -6.340837    0.564901    5.366284
    157          1           0       -8.014130   -1.251014    5.834963
    158          1           0       -9.368841   -0.111727    5.496607
    159          1           0       -8.845554   -0.342565    7.855644
    160          1           0       -7.282563    0.275204    7.599098
    161          1           0       -8.650930    1.260325    7.314739
    162          7           0       -4.817667    1.224627   -0.214353
    163          6           0       -3.932677    1.947961   -1.133438
    164          6           0       -4.536508    2.104898   -2.519333
    165          8           0       -4.258231    3.107149   -3.164523
    166          6           0       -2.564176    1.248531   -1.185076
    167          6           0       -1.820232    1.516769    0.143314
    168          6           0       -0.520570    0.798581    0.326688
    169          8           0       -0.462853   -0.416906    0.328311
    170          8           0        0.573047    1.505045    0.629118
    171          1           0       -4.526603    0.303767    0.121706
    172          1           0       -3.753265    2.974091   -0.745493
    173          1           0       -1.957641    1.603698   -2.029510
    174          1           0       -2.753131    0.189216   -1.383067
    175          1           0       -2.464457    1.257457    1.003330
    176          1           0       -1.607653    2.607828    0.200894
    177          7           0       -5.433382    1.203697   -3.008950
    178          6           0       -6.151142    1.402685   -4.252232
    179          1           0       -7.230098    1.509015   -4.012338
    180          1           0       -5.829638    2.316864   -4.794290
    181          1           0       -6.018677    0.526531   -4.920135
    182          1           0       -5.661197    0.369352   -2.458992
    183         20           0        2.398017   -0.203073    1.299194
    184          8           0        0.922054   -2.970456    2.394360
    185          1           0        1.374245   -3.788574    2.097908
    186          1           0        0.434556   -3.267400    3.201125
    187          8           0        0.224134   -0.482804    3.387693
    188          1           0       -0.718429   -0.547090    3.678624
    189          1           0        0.742365   -0.470231    4.230431
 ---------------------------------------------------------------------
 Rotational constants (GHZ):           0.0222201           0.0129552           0.0112706
 Standard basis: SVP (5D, 7F)
 There are  1904 symmetry adapted cartesian basis functions of A   symmetry.
 There are  1809 symmetry adapted basis functions of A   symmetry.
  1809 basis functions,  3067 primitive gaussians,  1904 cartesian basis functions
   375 alpha electrons      375 beta electrons
       nuclear repulsion energy     23340.9910768690 Hartrees.
 NAtoms=  189 NActive=  189 NUniq=  189 SFac= 1.00D+00 NAtFMM=   60 NAOKFM=T Big=T
 Integral buffers will be    131072 words long.
 Raffenetti 2 integral format.
 Two-electron integral symmetry is turned on.
 One-electron integrals computed using PRISM.
 NBasis=  1809 RedAO= T EigKep=  7.94D-04  NBF=  1809
 NBsUse=  1809 1.00D-06 EigRej= -1.00D+00 NBFU=  1809
 ExpMin= 1.98D-02 ExpMax= 3.51D+04 ExpMxC= 5.28D+03 IAcc=3 IRadAn=         5 AccDes= 0.00D+00
 Harris functional with IExCor=  402 and IRadAn=       5 diagonalized for initial guess.
 HarFok:  IExCor=  402 AccDes= 0.00D+00 IRadAn=         5 IDoV= 1 UseB2=F ITyADJ=14
 ICtDFT=  3500011 ScaDFX=  1.000000  1.000000  1.000000  1.000000
 FoFCou: FMM=F IPFlag=           0 FMFlag=      100000 FMFlg1=        2001
         NFxFlg=           0 DoJE=T BraDBF=F KetDBF=T FulRan=T
         wScrn=  0.000000 ICntrl=       500 IOpCl=  0 I1Cent=   200000004 NGrid=           0
         NMat0=    1 NMatS0=      1 NMatT0=    0 NMatD0=    1 NMtDS0=    0 NMtDT0=    0
 Petite list used in FoFCou.
 Requested convergence on RMS density matrix=1.00D-08 within  32 cycles.
 Requested convergence on MAX density matrix=1.00D-06.
 Requested convergence on             energy=1.00D-06.
 No special actions if energy rises.
 EnCoef did     1 forward-backward iterations
 EnCoef did     3 forward-backward iterations
 EnCoef did    19 forward-backward iterations
 EnCoef did    25 forward-backward iterations
 EnCoef did   100 forward-backward iterations
 EnCoef did   100 forward-backward iterations
 Rare condition: small coef for last iteration: -0.182D-14
 EnCoef did   100 forward-backward iterations
 EnCoef did   100 forward-backward iterations
 EnCoef did   100 forward-backward iterations
 Rare condition: small coef for last iteration:  0.210D-14
 EnCoef did    25 forward-backward iterations
 Rare condition: small coef for last iteration:  0.000D+00
 EnCoef did   100 forward-backward iterations
 EnCoef did   100 forward-backward iterations
 EnCoef did    54 forward-backward iterations
 Rare condition: small coef for last iteration: -0.220D-15
 EnCoef did    25 forward-backward iterations
 Rare condition: small coef for last iteration:  0.000D+00
 Restarting incremental Fock formation.
 EnCoef did   100 forward-backward iterations
 EnCoef did   100 forward-backward iterations
 EnCoef did    14 forward-backward iterations
 Rare condition: small coef for last iteration:  0.000D+00
 EnCoef did    25 forward-backward iterations
 Rare condition: small coef for last iteration:  0.000D+00
 EnCoef did   100 forward-backward iterations
 EnCoef did   100 forward-backward iterations
 EnCoef did    14 forward-backward iterations
 Rare condition: small coef for last iteration: -0.222D-15
 EnCoef did    25 forward-backward iterations
 Rare condition: small coef for last iteration:  0.000D+00
 EnCoef did   100 forward-backward iterations
 EnCoef did   100 forward-backward iterations
 >>>>>>>>>> Convergence criterion not met.
 SCF Done:  E(RB3LYP) =  -5563.94900346     A.U. after   33 cycles
            NFock= 32  Conv=0.21D-04     -V/T= 2.0091
 Gradient too large for Newton-Raphson -- use scaled steepest descent instead.
     Minimum is close to point  3 DX= -1.47D-02 DF= -3.69D-04 DXR=  3.03D-02 DFR=  8.76D-04 which will be used.
 Gradient too large for Newton-Raphson -- use scaled steepest descent instead.
     Accept linear search using points  2 and  3.
 Gradient too large for Newton-Raphson -- use scaled steepest descent instead.
     Minimum is close to point  3 DX=  7.14D-02 DF= -2.40D-04 DXR=  8.19D-02 DFR=  7.01D-03 which will be used.
 Gradient too large for Newton-Raphson -- use scaled steepest descent instead.
     Minimum is close to point  2 DX=  1.72D-03 DF= -2.34D-07 DXR=  2.45D-03 DFR=  6.01D-06 which will be used.
 Gradient too large for Newton-Raphson -- use scaled steepest descent instead.
     Accept linear search using points  1 and  2.
 Gradient too large for Newton-Raphson -- use scaled steepest descent instead.
     Accept linear search using points  1 and  2.
 Gradient too large for Newton-Raphson -- use scaled steepest descent instead.
     Accept linear search using points  1 and  2.
 Gradient too large for Newton-Raphson -- use scaled steepest descent instead.
     Accept linear search using points  2 and  3.
 Restarting incremental Fock formation.
 Gradient too large for Newton-Raphson -- use scaled steepest descent instead.
     Accept linear search using points  1 and  2.
 Gradient too large for Newton-Raphson -- use scaled steepest descent instead.
     Minimum is close to point  3 DX=  7.03D-02 DF= -3.05D-04 DXR=  7.24D-02 DFR=  5.57D-03 which will be used.
 Gradient too large for Newton-Raphson -- use scaled steepest descent instead.
     Accept linear search using points  1 and  2.
 Gradient too large for Newton-Raphson -- use scaled steepest descent instead.
     Minimum is close to point  4 DX=  1.81D-01 DF= -2.79D-04 DXR=  7.02D-02 DFR=  4.03D-03 which will be used.
 Gradient too large for Newton-Raphson -- use scaled steepest descent instead.
 Gradient too large for Newton-Raphson -- use scaled steepest descent instead.
 Gradient too large for Newton-Raphson -- use scaled steepest descent instead.
     Accept linear search using points  1 and  2.
 Restarting incremental Fock formation.
 Gradient too large for Newton-Raphson -- use scaled steepest descent instead.
     Accept linear search using points  1 and  2.
 Gradient too large for Newton-Raphson -- use scaled steepest descent instead.
 Gradient too large for Newton-Raphson -- use scaled steepest descent instead.
     Accept linear search using points  1 and  2.
 Gradient too large for Newton-Raphson -- use scaled steepest descent instead.
     Accept linear search using points  3 and  4.
 Gradient too large for Newton-Raphson -- use scaled steepest descent instead.
 Gradient too large for Newton-Raphson -- use scaled steepest descent instead.
     Accept linear search using points  1 and  2.
 LinEq1:  Iter=  0 NonCon=     1 RMS=2.54D-04 Max=1.70D-01 NDo=     1
 AX will form     1 AO Fock derivatives at one time.
 LinEq1:  Iter=  1 NonCon=     1 RMS=3.92D-03 Max=1.61D+00 NDo=     1
 LinEq1:  Iter=  2 NonCon=     1 RMS=1.63D-03 Max=4.94D-01 NDo=     1
 LinEq1:  Iter=  3 NonCon=     1 RMS=1.05D-03 Max=3.96D-01 NDo=     1
 LinEq1:  Iter=  4 NonCon=     1 RMS=8.25D-04 Max=2.61D-01 NDo=     1
 LinEq1:  Iter=  5 NonCon=     1 RMS=6.11D-04 Max=9.12D-02 NDo=     1
 LinEq1:  Iter=  6 NonCon=     1 RMS=5.16D-04 Max=7.56D-02 NDo=     1
 LinEq1:  Iter=  7 NonCon=     1 RMS=3.87D-04 Max=5.75D-02 NDo=     1
 LinEq1:  Iter=  8 NonCon=     1 RMS=2.61D-04 Max=7.49D-02 NDo=     1
 LinEq1:  Iter=  9 NonCon=     1 RMS=2.40D-04 Max=8.89D-02 NDo=     1
 LinEq1:  Iter= 10 NonCon=     1 RMS=2.45D-04 Max=1.06D-01 NDo=     1
 LinEq1:  Iter= 11 NonCon=     1 RMS=1.71D-04 Max=5.03D-02 NDo=     1
 LinEq1:  Iter= 12 NonCon=     1 RMS=1.09D-04 Max=1.36D-02 NDo=     1
 LinEq1:  Iter= 13 NonCon=     1 RMS=9.60D-05 Max=1.23D-02 NDo=     1
 LinEq1:  Iter= 14 NonCon=     1 RMS=6.03D-05 Max=1.04D-02 NDo=     1
 LinEq1:  Iter= 15 NonCon=     1 RMS=3.58D-05 Max=5.53D-03 NDo=     1
 LinEq1:  Iter= 16 NonCon=     1 RMS=2.93D-05 Max=5.22D-03 NDo=     1
 LinEq1:  Iter= 17 NonCon=     1 RMS=1.81D-05 Max=3.49D-03 NDo=     1
 LinEq1:  Iter= 18 NonCon=     1 RMS=1.27D-05 Max=3.91D-03 NDo=     1
 LinEq1:  Iter= 19 NonCon=     1 RMS=8.52D-06 Max=1.78D-03 NDo=     1
 LinEq1:  Iter= 20 NonCon=     1 RMS=6.86D-06 Max=1.65D-03 NDo=     1
 LinEq1:  Iter= 21 NonCon=     1 RMS=4.92D-06 Max=1.01D-03 NDo=     1
 LinEq1:  Iter= 22 NonCon=     1 RMS=3.01D-06 Max=4.85D-04 NDo=     1
 LinEq1:  Iter= 23 NonCon=     1 RMS=2.05D-06 Max=2.61D-04 NDo=     1
 LinEq1:  Iter= 24 NonCon=     1 RMS=1.31D-06 Max=1.89D-04 NDo=     1
 LinEq1:  Iter= 25 NonCon=     1 RMS=1.04D-06 Max=2.16D-04 NDo=     1
 LinEq1:  Iter= 26 NonCon=     1 RMS=6.42D-07 Max=8.15D-05 NDo=     1
 LinEq1:  Iter= 27 NonCon=     1 RMS=4.24D-07 Max=1.09D-04 NDo=     1
 LinEq1:  Iter= 28 NonCon=     1 RMS=2.32D-07 Max=2.76D-05 NDo=     1
 LinEq1:  Iter= 29 NonCon=     1 RMS=1.87D-07 Max=2.08D-05 NDo=     1
 LinEq1:  Iter= 30 NonCon=     1 RMS=1.19D-07 Max=1.39D-05 NDo=     1
 LinEq1:  Iter= 31 NonCon=     1 RMS=7.49D-08 Max=1.08D-05 NDo=     1
 LinEq1:  Iter= 32 NonCon=     1 RMS=3.85D-08 Max=5.12D-06 NDo=     1
 LinEq1:  Iter= 33 NonCon=     1 RMS=2.39D-08 Max=3.39D-06 NDo=     1
 LinEq1:  Iter= 34 NonCon=     1 RMS=1.72D-08 Max=1.97D-06 NDo=     1
 LinEq1:  Iter= 35 NonCon=     1 RMS=1.30D-08 Max=2.38D-06 NDo=     1
 LinEq1:  Iter= 36 NonCon=     1 RMS=7.49D-09 Max=1.54D-06 NDo=     1
 LinEq1:  Iter= 37 NonCon=     0 RMS=4.66D-09 Max=6.31D-07 NDo=     1
 Linear equations converged to 8.533D-08 8.533D-07 after    37 iterations.
     Minimum is close to point  2 DX= -5.09D-03 DF= -1.13D-08 DXR=  5.11D-03 DFR=  2.62D-05 which will be used.
 LinEq1:  Iter=  0 NonCon=     1 RMS=1.18D-04 Max=8.56D-02 NDo=     1
 LinEq1:  Iter=  1 NonCon=     1 RMS=4.57D-04 Max=2.71D-01 NDo=     1
 LinEq1:  Iter=  2 NonCon=     1 RMS=2.22D-04 Max=5.10D-02 NDo=     1
 LinEq1:  Iter=  3 NonCon=     1 RMS=1.55D-04 Max=4.32D-02 NDo=     1
 LinEq1:  Iter=  4 NonCon=     1 RMS=1.02D-04 Max=2.32D-02 NDo=     1
 LinEq1:  Iter=  5 NonCon=     1 RMS=9.39D-05 Max=2.59D-02 NDo=     1
 LinEq1:  Iter=  6 NonCon=     1 RMS=7.43D-05 Max=1.85D-02 NDo=     1
 LinEq1:  Iter=  7 NonCon=     1 RMS=5.18D-05 Max=9.22D-03 NDo=     1
 LinEq1:  Iter=  8 NonCon=     1 RMS=3.45D-05 Max=6.27D-03 NDo=     1
 LinEq1:  Iter=  9 NonCon=     1 RMS=3.37D-05 Max=8.67D-03 NDo=     1
 LinEq1:  Iter= 10 NonCon=     1 RMS=2.08D-05 Max=7.13D-03 NDo=     1
 LinEq1:  Iter= 11 NonCon=     1 RMS=1.39D-05 Max=4.47D-03 NDo=     1
 LinEq1:  Iter= 12 NonCon=     1 RMS=1.20D-05 Max=3.44D-03 NDo=     1
 LinEq1:  Iter= 13 NonCon=     1 RMS=1.02D-05 Max=2.39D-03 NDo=     1
 LinEq1:  Iter= 14 NonCon=     1 RMS=6.75D-06 Max=1.31D-03 NDo=     1
 LinEq1:  Iter= 15 NonCon=     1 RMS=5.25D-06 Max=1.00D-03 NDo=     1
 LinEq1:  Iter= 16 NonCon=     1 RMS=3.64D-06 Max=6.83D-04 NDo=     1
 LinEq1:  Iter= 17 NonCon=     1 RMS=2.68D-06 Max=4.85D-04 NDo=     1
 LinEq1:  Iter= 18 NonCon=     1 RMS=1.48D-06 Max=2.13D-04 NDo=     1
 LinEq1:  Iter= 19 NonCon=     1 RMS=1.03D-06 Max=1.39D-04 NDo=     1
 LinEq1:  Iter= 20 NonCon=     1 RMS=7.37D-07 Max=1.06D-04 NDo=     1
 LinEq1:  Iter= 21 NonCon=     1 RMS=5.12D-07 Max=7.65D-05 NDo=     1
 LinEq1:  Iter= 22 NonCon=     1 RMS=3.46D-07 Max=4.41D-05 NDo=     1
 LinEq1:  Iter= 23 NonCon=     1 RMS=1.91D-07 Max=2.32D-05 NDo=     1
 LinEq1:  Iter= 24 NonCon=     1 RMS=1.41D-07 Max=2.23D-05 NDo=     1
 LinEq1:  Iter= 25 NonCon=     1 RMS=1.02D-07 Max=1.84D-05 NDo=     1
 LinEq1:  Iter= 26 NonCon=     1 RMS=6.81D-08 Max=1.67D-05 NDo=     1
 LinEq1:  Iter= 27 NonCon=     1 RMS=4.00D-08 Max=9.56D-06 NDo=     1
 LinEq1:  Iter= 28 NonCon=     1 RMS=3.10D-08 Max=7.78D-06 NDo=     1
 LinEq1:  Iter= 29 NonCon=     1 RMS=2.13D-08 Max=4.29D-06 NDo=     1
 LinEq1:  Iter= 30 NonCon=     1 RMS=1.59D-08 Max=3.11D-06 NDo=     1
 LinEq1:  Iter= 31 NonCon=     1 RMS=7.97D-09 Max=1.26D-06 NDo=     1
 LinEq1:  Iter= 32 NonCon=     1 RMS=5.55D-09 Max=7.27D-07 NDo=     1
 LinEq1:  Iter= 33 NonCon=     1 RMS=4.52D-09 Max=6.16D-07 NDo=     1
 LinEq1:  Iter= 34 NonCon=     1 RMS=3.04D-09 Max=5.46D-07 NDo=     1
 LinEq1:  Iter= 35 NonCon=     0 RMS=1.73D-09 Max=2.80D-07 NDo=     1
 Linear equations converged to 3.091D-08 3.091D-07 after    35 iterations.
 Restarting incremental Fock formation.
 LinEq1:  Iter=  0 NonCon=     1 RMS=1.02D-05 Max=7.46D-03 NDo=     1
 LinEq1:  Iter=  1 NonCon=     1 RMS=1.26D-05 Max=4.04D-03 NDo=     1
 LinEq1:  Iter=  2 NonCon=     1 RMS=2.24D-05 Max=1.04D-02 NDo=     1
 LinEq1:  Iter=  3 NonCon=     1 RMS=1.20D-05 Max=3.62D-03 NDo=     1
 LinEq1:  Iter=  4 NonCon=     1 RMS=6.44D-06 Max=1.33D-03 NDo=     1
 LinEq1:  Iter=  5 NonCon=     1 RMS=5.42D-06 Max=1.66D-03 NDo=     1
 LinEq1:  Iter=  6 NonCon=     1 RMS=4.69D-06 Max=1.36D-03 NDo=     1
 LinEq1:  Iter=  7 NonCon=     1 RMS=3.07D-06 Max=8.85D-04 NDo=     1
 LinEq1:  Iter=  8 NonCon=     1 RMS=2.13D-06 Max=4.67D-04 NDo=     1
 LinEq1:  Iter=  9 NonCon=     1 RMS=2.04D-06 Max=3.62D-04 NDo=     1
 LinEq1:  Iter= 10 NonCon=     1 RMS=1.19D-06 Max=3.08D-04 NDo=     1
 LinEq1:  Iter= 11 NonCon=     1 RMS=8.40D-07 Max=2.99D-04 NDo=     1
 LinEq1:  Iter= 12 NonCon=     1 RMS=7.24D-07 Max=2.67D-04 NDo=     1
 LinEq1:  Iter= 13 NonCon=     1 RMS=6.35D-07 Max=1.79D-04 NDo=     1
 LinEq1:  Iter= 14 NonCon=     1 RMS=4.31D-07 Max=8.06D-05 NDo=     1
 LinEq1:  Iter= 15 NonCon=     1 RMS=3.52D-07 Max=7.03D-05 NDo=     1
 LinEq1:  Iter= 16 NonCon=     1 RMS=2.58D-07 Max=4.72D-05 NDo=     1
 LinEq1:  Iter= 17 NonCon=     1 RMS=2.09D-07 Max=4.05D-05 NDo=     1
 LinEq1:  Iter= 18 NonCon=     1 RMS=1.19D-07 Max=1.87D-05 NDo=     1
 LinEq1:  Iter= 19 NonCon=     1 RMS=7.39D-08 Max=1.15D-05 NDo=     1
 LinEq1:  Iter= 20 NonCon=     1 RMS=5.30D-08 Max=8.43D-06 NDo=     1
 LinEq1:  Iter= 21 NonCon=     1 RMS=3.85D-08 Max=6.32D-06 NDo=     1
 LinEq1:  Iter= 22 NonCon=     1 RMS=2.63D-08 Max=5.33D-06 NDo=     1
 LinEq1:  Iter= 23 NonCon=     1 RMS=1.49D-08 Max=3.29D-06 NDo=     1
 LinEq1:  Iter= 24 NonCon=     1 RMS=9.54D-09 Max=2.15D-06 NDo=     1
 LinEq1:  Iter= 25 NonCon=     1 RMS=7.36D-09 Max=1.63D-06 NDo=     1
 LinEq1:  Iter= 26 NonCon=     1 RMS=5.65D-09 Max=1.26D-06 NDo=     1
 LinEq1:  Iter= 27 NonCon=     1 RMS=3.33D-09 Max=6.95D-07 NDo=     1
 LinEq1:  Iter= 28 NonCon=     1 RMS=2.27D-09 Max=3.05D-07 NDo=     1
 LinEq1:  Iter= 29 NonCon=     1 RMS=1.60D-09 Max=1.86D-07 NDo=     1
 LinEq1:  Iter= 30 NonCon=     1 RMS=1.27D-09 Max=1.76D-07 NDo=     1
 LinEq1:  Iter= 31 NonCon=     1 RMS=6.67D-10 Max=1.47D-07 NDo=     1
 LinEq1:  Iter= 32 NonCon=     1 RMS=3.89D-10 Max=7.39D-08 NDo=     1
 LinEq1:  Iter= 33 NonCon=     1 RMS=2.72D-10 Max=4.24D-08 NDo=     1
 LinEq1:  Iter= 34 NonCon=     1 RMS=1.97D-10 Max=2.57D-08 NDo=     1
 LinEq1:  Iter= 35 NonCon=     0 RMS=1.28D-10 Max=1.38D-08 NDo=     1
 Linear equations converged to 2.079D-09 2.079D-08 after    35 iterations.
 SCF Done:  E(RB3LYP) =  -5565.01953856     a.u. after   25 cycles
            Convg  =    0.2582D-06                   171 Fock formations.
              S**2 =  0.0000                  -V/T =  2.0088
 SCF density gives NOpUse=  1 NOpAll=  1.
 Hyperfine terms turned off by default for NAtoms > 100.

 **********************************************************************

            Population analysis using the SCF Density.

 **********************************************************************

 Orbital symmetries:
 BldTbl:  Degeneracy threshold= 1.00D-02
       Occupied  (A) (A) (A) (A) (A) (A) (A) (A) (A) (A) (A) (A)
                 (A) (A) (A) (A) (A) (A) (A) (A) (A) (A) (A) (A)
                 (A) (A) (A) (A) (A) (A) (A) (A) (A) (A) (A) (A)
                 (A) (A) (A) (A) (A) (A) (A) (A) (A) (A) (A) (A)
                 (A) (A) (A) (A) (A) (A) (A) (A) (A) (A) (A) (A)
                 (A) (A) (A) (A) (A) (A) (A) (A) (A) (A) (A) (A)
                 (A) (A) (A) (A) (A) (A) (A) (A) (A) (A) (A) (A)
                 (A) (A) (A) (A) (A) (A) (A) (A) (A) (A) (A) (A)
                 (A) (A) (A) (A) (A) (A) (A) (A) (A) (A) (A) (A)
                 (A) (A) (A) (A) (A) (A) (A) (A) (A) (A) (A) (A)
                 (A) (A) (A) (A) (A) (A) (A) (A) (A) (A) (A) (A)
                 (A) (A) (A) (A) (A) (A) (A) (A) (A) (A) (A) (A)
                 (A) (A) (A) (A) (A) (A) (A) (A) (A) (A) (A) (A)
                 (A) (A) (A) (A) (A) (A) (A) (A) (A) (A) (A) (A)
                 (A) (A) (A) (A) (A) (A) (A) (A) (A) (A) (A) (A)
                 (A) (A) (A) (A) (A) (A) (A) (A) (A) (A) (A) (A)
                 (A) (A) (A) (A) (A) (A) (A) (A) (A) (A) (A) (A)
                 (A) (A) (A) (A) (A) (A) (A) (A) (A) (A) (A) (A)
                 (A) (A) (A) (A) (A) (A) (A) (A) (A) (A) (A) (A)
                 (A) (A) (A) (A) (A) (A) (A) (A) (A) (A) (A) (A)
                 (A) (A) (A) (A) (A) (A) (A) (A) (A) (A) (A) (A)
                 (A) (A) (A) (A) (A) (A) (A) (A) (A) (A) (A) (A)
                 (A) (A) (A) (A) (A) (A) (A) (A) (A) (A) (A) (A)
                 (A) (A) (A) (A) (A) (A) (A) (A) (A) (A) (A) (A)
                 (A) (A) (A) (A) (A) (A) (A) (A) (A) (A) (A) (A)
                 (A) (A) (A) (A) (A) (A) (A) (A) (A) (A) (A) (A)
                 (A) (A) (A) (A) (A) (A) (A) (A) (A) (A) (A) (A)
                 (A) (A) (A) (A) (A) (A) (A) (A) (A) (A) (A) (A)
                 (A) (A) (A) (A) (A) (A) (A) (A) (A) (A) (A) (A)
                 (A) (A) (A) (A) (A) (A) (A) (A) (A) (A) (A) (A)
                 (A) (A) (A) (A) (A) (A) (A) (A) (A) (A) (A) (A)
                 (A) (A) (A)
       Virtual   (A) (A) (A) (A) (A) (A) (A) (A) (A) (A) (A) (A)
                 (A) (A) (A) (A) (A) (A) (A) (A) (A) (A) (A) (A)
                 (A) (A) (A) (A) (A) (A) (A) (A) (A) (A) (A) (A)
                 (A) (A) (A) (A) (A) (A) (A) (A) (A) (A) (A) (A)
                 (A) (A) (A) (A) (A) (A) (A) (A) (A) (A) (A) (A)
                 (A) (A) (A) (A) (A) (A) (A) (A) (A) (A) (A) (A)
                 (A) (A) (A) (A) (A) (A) (A) (A) (A) (A) (A) (A)
                 (A) (A) (A) (A) (A) (A) (A) (A) (A) (A) (A) (A)
                 (A) (A) (A) (A) (A) (A) (A) (A) (A) (A) (A) (A)
                 (A) (A) (A) (A) (A) (A) (A) (A) (A) (A) (A) (A)
                 (A) (A) (A) (A) (A) (A) (A) (A) (A) (A) (A) (A)
                 (A) (A) (A) (A) (A) (A) (A) (A) (A) (A) (A) (A)
                 (A) (A) (A) (A) (A) (A) (A) (A) (A) (A) (A) (A)
                 (A) (A) (A) (A) (A) (A) (A) (A) (A) (A) (A) (A)
                 (A) (A) (A) (A) (A) (A) (A) (A) (A) (A) (A) (A)
                 (A) (A) (A) (A) (A) (A) (A) (A) (A) (A) (A) (A)
                 (A) (A) (A) (A) (A) (A) (A) (A) (A) (A) (A) (A)
                 (A) (A) (A) (A) (A) (A) (A) (A) (A) (A) (A) (A)
                 (A) (A) (A) (A) (A) (A) (A) (A) (A) (A) (A) (A)
                 (A) (A) (A) (A) (A) (A) (A) (A) (A) (A) (A) (A)
                 (A) (A) (A) (A) (A) (A) (A) (A) (A) (A) (A) (A)
                 (A) (A) (A) (A) (A) (A) (A) (A) (A) (A) (A) (A)
                 (A) (A) (A) (A) (A) (A) (A) (A) (A) (A) (A) (A)
                 (A) (A) (A) (A) (A) (A) (A) (A) (A) (A) (A) (A)
                 (A) (A) (A) (A) (A) (A) (A) (A) (A) (A) (A) (A)
                 (A) (A) (A) (A) (A) (A) (A) (A) (A) (A) (A) (A)
                 (A) (A) (A) (A) (A) (A) (A) (A) (A) (A) (A) (A)
                 (A) (A) (A) (A) (A) (A) (A) (A) (A) (A) (A) (A)
                 (A) (A) (A) (A) (A) (A) (A) (A) (A) (A) (A) (A)
                 (A) (A) (A) (A) (A) (A) (A) (A) (A) (A) (A) (A)
                 (A) (A) (A) (A) (A) (A) (A) (A) (A) (A) (A) (A)
                 (A) (A) (A) (A) (A) (A) (A) (A) (A) (A) (A) (A)
                 (A) (A) (A) (A) (A) (A) (A) (A) (A) (A) (A) (A)
                 (A) (A) (A) (A) (A) (A) (A) (A) (A) (A) (A) (A)
                 (A) (A) (A) (A) (A) (A) (A) (A) (A) (A) (A) (A)
                 (A) (A) (A) (A) (A) (A) (A) (A) (A) (A) (A) (A)
                 (A) (A) (A) (A) (A) (A) (A) (A) (A) (A) (A) (A)
                 (A) (A) (A) (A) (A) (A) (A) (A) (A) (A) (A) (A)
                 (A) (A) (A) (A) (A) (A) (A) (A) (A) (A) (A) (A)
                 (A) (A) (A) (A) (A) (A) (A) (A) (A) (A) (A) (A)
                 (A) (A) (A) (A) (A) (A) (A) (A) (A) (A) (A) (A)
                 (A) (A) (A) (A) (A) (A) (A) (A) (A) (A) (A) (A)
                 (A) (A) (A) (A) (A) (A) (A) (A) (A) (A) (A) (A)
                 (A) (A) (A) (A) (A) (A) (A) (A) (A) (A) (A) (A)
                 (A) (A) (A) (A) (A) (A) (A) (A) (A) (A) (A) (A)
                 (A) (A) (A) (A) (A) (A) (A) (A) (A) (A) (A) (A)
                 (A) (A) (A) (A) (A) (A) (A) (A) (A) (A) (A) (A)
                 (A) (A) (A) (A) (A) (A) (A) (A) (A) (A) (A) (A)
                 (A) (A) (A) (A) (A) (A) (A) (A) (A) (A) (A) (A)
                 (A) (A) (A) (A) (A) (A) (A) (A) (A) (A) (A) (A)
                 (A) (A) (A) (A) (A) (A) (A) (A) (A) (A) (A) (A)
                 (A) (A) (A) (A) (A) (A) (A) (A) (A) (A) (A) (A)
                 (A) (A) (A) (A) (A) (A) (A) (A) (A) (A) (A) (A)
                 (A) (A) (A) (A) (A) (A) (A) (A) (A) (A) (A) (A)
                 (A) (A) (A) (A) (A) (A) (A) (A) (A) (A) (A) (A)
                 (A) (A) (A) (A) (A) (A) (A) (A) (A) (A) (A) (A)
                 (A) (A) (A) (A) (A) (A) (A) (A) (A) (A) (A) (A)
                 (A) (A) (A) (A) (A) (A) (A) (A) (A) (A) (A) (A)
                 (A) (A) (A) (A) (A) (A) (A) (A) (A) (A) (A) (A)
                 (A) (A) (A) (A) (A) (A) (A) (A) (A) (A) (A) (A)
                 (A) (A) (A) (A) (A) (A) (A) (A) (A) (A) (A) (A)
                 (A) (A) (A) (A) (A) (A) (A) (A) (A) (A) (A) (A)
                 (A) (A) (A) (A) (A) (A) (A) (A) (A) (A) (A) (A)
                 (A) (A) (A) (A) (A) (A) (A) (A) (A) (A) (A) (A)
                 (A) (A) (A) (A) (A) (A) (A) (A) (A) (A) (A) (A)
                 (A) (A) (A) (A) (A) (A) (A) (A) (A) (A) (A) (A)
                 (A) (A) (A) (A) (A) (A) (A) (A) (A) (A) (A) (A)
                 (A) (A) (A) (A) (A) (A) (A) (A) (A) (A) (A) (A)
                 (A) (A) (A) (A) (A) (A) (A) (A) (A) (A) (A) (A)
                 (A) (A) (A) (A) (A) (A) (A) (A) (A) (A) (A) (A)
                 (A) (A) (A) (A) (A) (A) (A) (A) (A) (A) (A) (A)
                 (A) (A) (A) (A) (A) (A) (A) (A) (A) (A) (A) (A)
                 (A) (A) (A) (A) (A) (A) (A) (A) (A) (A) (A) (A)
                 (A) (A) (A) (A) (A) (A) (A) (A) (A) (A) (A) (A)
                 (A) (A) (A) (A) (A) (A) (A) (A) (A) (A) (A) (A)
                 (A) (A) (A) (A) (A) (A) (A) (A) (A) (A) (A) (A)
                 (A) (A) (A) (A) (A) (A) (A) (A) (A) (A) (A) (A)
                 (A) (A) (A) (A) (A) (A) (A) (A) (A) (A) (A) (A)
                 (A) (A) (A) (A) (A) (A) (A) (A) (A) (A) (A) (A)
                 (A) (A) (A) (A) (A) (A) (A) (A) (A) (A) (A) (A)
                 (A) (A) (A) (A) (A) (A) (A) (A) (A) (A) (A) (A)
                 (A) (A) (A) (A) (A) (A) (A) (A) (A) (A) (A) (A)
                 (A) (A) (A) (A) (A) (A) (A) (A) (A) (A) (A) (A)
                 (A) (A) (A) (A) (A) (A) (A) (A) (A) (A) (A) (A)
                 (A) (A) (A) (A) (A) (A) (A) (A) (A) (A) (A) (A)
                 (A) (A) (A) (A) (A) (A) (A) (A) (A) (A) (A) (A)
                 (A) (A) (A) (A) (A) (A) (A) (A) (A) (A) (A) (A)
                 (A) (A) (A) (A) (A) (A) (A) (A) (A) (A) (A) (A)
                 (A) (A) (A) (A) (A) (A) (A) (A) (A) (A) (A) (A)
                 (A) (A) (A) (A) (A) (A) (A) (A) (A) (A) (A) (A)
                 (A) (A) (A) (A) (A) (A) (A) (A) (A) (A) (A) (A)
                 (A) (A) (A) (A) (A) (A) (A) (A) (A) (A) (A) (A)
                 (A) (A) (A) (A) (A) (A) (A) (A) (A) (A) (A) (A)
                 (A) (A) (A) (A) (A) (A) (A) (A) (A) (A) (A) (A)
                 (A) (A) (A) (A) (A) (A) (A) (A) (A) (A) (A) (A)
                 (A) (A) (A) (A) (A) (A) (A) (A) (A) (A) (A) (A)
                 (A) (A) (A) (A) (A) (A) (A) (A) (A) (A) (A) (A)
                 (A) (A) (A) (A) (A) (A) (A) (A) (A) (A) (A) (A)
                 (A) (A) (A) (A) (A) (A) (A) (A) (A) (A) (A) (A)
                 (A) (A) (A) (A) (A) (A) (A) (A) (A) (A) (A) (A)
                 (A) (A) (A) (A) (A) (A) (A) (A) (A) (A) (A) (A)
                 (A) (A) (A) (A) (A) (A) (A) (A) (A) (A) (A) (A)
                 (A) (A) (A) (A) (A) (A) (A) (A) (A) (A) (A) (A)
                 (A) (A) (A) (A) (A) (A) (A) (A) (A) (A) (A) (A)
                 (A) (A) (A) (A) (A) (A) (A) (A) (A) (A) (A) (A)
                 (A) (A) (A) (A) (A) (A) (A) (A) (A) (A) (A) (A)
                 (A) (A) (A) (A) (A) (A) (A) (A) (A) (A) (A) (A)
                 (A) (A) (A) (A) (A) (A) (A) (A) (A) (A) (A) (A)
                 (A) (A) (A) (A) (A) (A) (A) (A) (A) (A) (A) (A)
                 (A) (A) (A) (A) (A) (A) (A) (A) (A) (A) (A) (A)
                 (A) (A) (A) (A) (A) (A) (A) (A) (A) (A) (A) (A)
                 (A) (A) (A) (A) (A) (A) (A) (A) (A) (A) (A) (A)
                 (A) (A) (A) (A) (A) (A) (A) (A) (A) (A) (A) (A)
                 (A) (A) (A) (A) (A) (A) (A) (A) (A) (A) (A) (A)
                 (A) (A) (A) (A) (A) (A) (A) (A) (A) (A) (A) (A)
                 (A) (A) (A) (A) (A) (A) (A) (A) (A) (A) (A) (A)
                 (A) (A) (A) (A) (A) (A) (A) (A) (A) (A) (A) (A)
                 (A) (A) (A) (A) (A) (A) (A) (A) (A) (A) (A) (A)
                 (A) (A) (A) (A) (A) (A) (A) (A) (A) (A) (A) (A)
                 (A) (A) (A) (A) (A) (A)
 The electronic state is 1-A.
 Alpha  occ. eigenvalues -- -145.27151 -19.19245 -19.15580 -19.12114 -19.11770
 Alpha  occ. eigenvalues --  -19.09359 -19.09024 -19.08434 -19.07774 -19.07542
 Alpha  occ. eigenvalues --  -19.06579 -19.06576 -19.06441 -19.05310 -19.05165
 Alpha  occ. eigenvalues --  -19.04916 -19.03149 -19.01798 -19.01689 -19.01144
 Alpha  occ. eigenvalues --  -18.99936 -18.99926 -18.99882 -18.99621 -18.99463
 Alpha  occ. eigenvalues --  -18.99433 -18.98496 -15.33091 -14.59140 -14.58148
 Alpha  occ. eigenvalues --  -14.38384 -14.37943 -14.34586 -14.34340 -14.33347
 Alpha  occ. eigenvalues --  -14.32249 -14.31678 -14.31480 -14.30514 -14.27698
 Alpha  occ. eigenvalues --  -14.27279 -14.25330 -14.24568 -12.46705 -12.46656
 Alpha  occ. eigenvalues --  -12.46607 -10.36095 -10.34450 -10.30556 -10.30217
 Alpha  occ. eigenvalues --  -10.29483 -10.29379 -10.28302 -10.27636 -10.27022
 Alpha  occ. eigenvalues --  -10.26848 -10.26558 -10.26279 -10.26013 -10.25881
 Alpha  occ. eigenvalues --  -10.25485 -10.24999 -10.24687 -10.24098 -10.23998
 Alpha  occ. eigenvalues --  -10.23679 -10.23513 -10.23508 -10.22353 -10.21828
 Alpha  occ. eigenvalues --  -10.21457 -10.20693 -10.20622 -10.20250 -10.20127
 Alpha  occ. eigenvalues --  -10.20094 -10.19786 -10.19751 -10.19664 -10.19557
 Alpha  occ. eigenvalues --  -10.19438 -10.18694 -10.18559 -10.18540 -10.18184
 Alpha  occ. eigenvalues --  -10.18124 -10.17558 -10.17187 -10.17003 -10.16348
 Alpha  occ. eigenvalues --  -10.15861 -10.15710 -10.15327 -10.14935 -10.14679
 Alpha  occ. eigenvalues --  -10.14298 -10.14096 -10.12976 -10.12186 -10.10920
 Alpha  occ. eigenvalues --   -1.70509  -1.12677  -1.12302  -1.06886  -1.05526
 Alpha  occ. eigenvalues --   -1.04549  -1.03186  -1.02603  -1.02384  -1.00791
 Alpha  occ. eigenvalues --   -0.99553  -0.99542  -0.99167  -0.98511  -0.98314
 Alpha  occ. eigenvalues --   -0.98224  -0.98172  -0.97801  -0.96306  -0.94995
 Alpha  occ. eigenvalues --   -0.94930  -0.94729  -0.94543  -0.93997  -0.93731
 Alpha  occ. eigenvalues --   -0.93642  -0.92945  -0.92347  -0.92228  -0.91129
 Alpha  occ. eigenvalues --   -0.90534  -0.90120  -0.90004  -0.89216  -0.88685
 Alpha  occ. eigenvalues --   -0.87450  -0.87374  -0.87157  -0.86318  -0.86137
 Alpha  occ. eigenvalues --   -0.83949  -0.82899  -0.82782  -0.82708  -0.82347
 Alpha  occ. eigenvalues --   -0.81278  -0.81263  -0.80765  -0.80229  -0.79664
 Alpha  occ. eigenvalues --   -0.78165  -0.77925  -0.77070  -0.76514  -0.75736
 Alpha  occ. eigenvalues --   -0.74426  -0.74266  -0.72451  -0.72225  -0.72140
 Alpha  occ. eigenvalues --   -0.71729  -0.71615  -0.71133  -0.70936  -0.70428
 Alpha  occ. eigenvalues --   -0.70334  -0.69866  -0.68316  -0.68054  -0.67102
 Alpha  occ. eigenvalues --   -0.66313  -0.66066  -0.65650  -0.65183  -0.64577
 Alpha  occ. eigenvalues --   -0.63868  -0.62894  -0.62789  -0.62720  -0.62003
 Alpha  occ. eigenvalues --   -0.61640  -0.61434  -0.61181  -0.60030  -0.59951
 Alpha  occ. eigenvalues --   -0.59891  -0.58959  -0.58238  -0.57493  -0.57431
 Alpha  occ. eigenvalues --   -0.57183  -0.56832  -0.55923  -0.55567  -0.55476
 Alpha  occ. eigenvalues --   -0.55161  -0.54701  -0.54359  -0.54298  -0.53571
 Alpha  occ. eigenvalues --   -0.53383  -0.53335  -0.52881  -0.51967  -0.51558
 Alpha  occ. eigenvalues --   -0.51092  -0.50986  -0.50705  -0.50589  -0.50519
 Alpha  occ. eigenvalues --   -0.50194  -0.49825  -0.49427  -0.49237  -0.48971
 Alpha  occ. eigenvalues --   -0.48876  -0.48690  -0.48546  -0.47964  -0.47873
 Alpha  occ. eigenvalues --   -0.47632  -0.47493  -0.46726  -0.46678  -0.46603
 Alpha  occ. eigenvalues --   -0.46320  -0.46168  -0.46105  -0.45927  -0.45742
 Alpha  occ. eigenvalues --   -0.45487  -0.45004  -0.44951  -0.44573  -0.44451
 Alpha  occ. eigenvalues --   -0.44425  -0.44246  -0.44199  -0.44080  -0.43862
 Alpha  occ. eigenvalues --   -0.43606  -0.43441  -0.43332  -0.43300  -0.43095
 Alpha  occ. eigenvalues --   -0.43015  -0.42865  -0.42783  -0.42333  -0.41860
 Alpha  occ. eigenvalues --   -0.41780  -0.41659  -0.41361  -0.41167  -0.40938
 Alpha  occ. eigenvalues --   -0.40857  -0.40748  -0.40566  -0.40306  -0.40143
 Alpha  occ. eigenvalues --   -0.40062  -0.39853  -0.39697  -0.39574  -0.39452
 Alpha  occ. eigenvalues --   -0.39365  -0.39119  -0.38837  -0.38817  -0.38478
 Alpha  occ. eigenvalues --   -0.38368  -0.38248  -0.38161  -0.37873  -0.37856
 Alpha  occ. eigenvalues --   -0.37665  -0.37598  -0.37413  -0.37347  -0.37280
 Alpha  occ. eigenvalues --   -0.37086  -0.36876  -0.36724  -0.36622  -0.36473
 Alpha  occ. eigenvalues --   -0.36408  -0.36341  -0.36218  -0.36107  -0.36041
 Alpha  occ. eigenvalues --   -0.35933  -0.35773  -0.35369  -0.35154  -0.35005
 Alpha  occ. eigenvalues --   -0.34756  -0.34565  -0.34401  -0.34332  -0.34239
 Alpha  occ. eigenvalues --   -0.34010  -0.33766  -0.33619  -0.33469  -0.33375
 Alpha  occ. eigenvalues --   -0.33063  -0.32945  -0.32935  -0.32829  -0.32628
 Alpha  occ. eigenvalues --   -0.32499  -0.32302  -0.32173  -0.31955  -0.31682
 Alpha  occ. eigenvalues --   -0.31384  -0.30948  -0.30838  -0.30576  -0.30521
 Alpha  occ. eigenvalues --   -0.30363  -0.30313  -0.30207  -0.30138  -0.30076
 Alpha  occ. eigenvalues --   -0.29732  -0.29597  -0.28990  -0.28798  -0.28524
 Alpha  occ. eigenvalues --   -0.28094  -0.27772  -0.27540  -0.27429  -0.27189
 Alpha  occ. eigenvalues --   -0.26900  -0.26715  -0.26194  -0.26118  -0.25595
 Alpha  occ. eigenvalues --   -0.25011  -0.24907  -0.24505  -0.24322  -0.24128
 Alpha  occ. eigenvalues --   -0.23793  -0.23224  -0.22980  -0.22861  -0.22342
 Alpha  occ. eigenvalues --   -0.22301  -0.22066  -0.21654  -0.21404  -0.20867
 Alpha  occ. eigenvalues --   -0.20631  -0.20503  -0.19589  -0.19328  -0.19128
 Alpha  occ. eigenvalues --   -0.18731  -0.18363  -0.18203  -0.17895  -0.17447
 Alpha  occ. eigenvalues --   -0.17160  -0.16992  -0.16826  -0.15628  -0.15396
 Alpha  occ. eigenvalues --   -0.15141  -0.14994  -0.14455  -0.14398  -0.12739
 Alpha virt. eigenvalues --   -0.11924  -0.11362  -0.05962  -0.05621  -0.05606
 Alpha virt. eigenvalues --   -0.05162  -0.03466  -0.01511  -0.01251  -0.00431
 Alpha virt. eigenvalues --   -0.00153   0.00646   0.00672   0.01317   0.01410
 Alpha virt. eigenvalues --    0.01793   0.02331   0.02669   0.03311   0.03643
 Alpha virt. eigenvalues --    0.03929   0.04201   0.04252   0.04471   0.04677
 Alpha virt. eigenvalues --    0.04857   0.05188   0.05293   0.06347   0.06482
 Alpha virt. eigenvalues --    0.06587   0.06808   0.07324   0.07427   0.07614
 Alpha virt. eigenvalues --    0.07975   0.08055   0.08324   0.08447   0.08639
 Alpha virt. eigenvalues --    0.08717   0.09063   0.09185   0.09304   0.09427
 Alpha virt. eigenvalues --    0.09532   0.09695   0.09905   0.10074   0.10566
 Alpha virt. eigenvalues --    0.10760   0.11021   0.11099   0.11124   0.11322
 Alpha virt. eigenvalues --    0.11384   0.11696   0.11758   0.11913   0.12037
 Alpha virt. eigenvalues --    0.12115   0.12204   0.12513   0.12713   0.12855
 Alpha virt. eigenvalues --    0.12983   0.13257   0.13297   0.13507   0.13571
 Alpha virt. eigenvalues --    0.13837   0.14138   0.14424   0.14605   0.14728
 Alpha virt. eigenvalues --    0.14841   0.14971   0.15289   0.15372   0.15437
 Alpha virt. eigenvalues --    0.15634   0.15896   0.16137   0.16205   0.16535
 Alpha virt. eigenvalues --    0.16656   0.16731   0.16855   0.17010   0.17096
 Alpha virt. eigenvalues --    0.17269   0.17336   0.17537   0.17835   0.17913
 Alpha virt. eigenvalues --    0.18251   0.18339   0.18462   0.18641   0.18915
 Alpha virt. eigenvalues --    0.19122   0.19343   0.19490   0.19674   0.19754
 Alpha virt. eigenvalues --    0.20132   0.20401   0.20456   0.20654   0.20839
 Alpha virt. eigenvalues --    0.20931   0.20988   0.21190   0.21316   0.21382
 Alpha virt. eigenvalues --    0.21514   0.21798   0.21909   0.22184   0.22259
 Alpha virt. eigenvalues --    0.22353   0.22815   0.22989   0.23099   0.23265
 Alpha virt. eigenvalues --    0.23530   0.23565   0.23672   0.23922   0.24023
 Alpha virt. eigenvalues --    0.24106   0.24350   0.25010   0.25184   0.25279
 Alpha virt. eigenvalues --    0.25543   0.25676   0.25832   0.26073   0.26263
 Alpha virt. eigenvalues --    0.26325   0.26581   0.26820   0.27024   0.27362
 Alpha virt. eigenvalues --    0.27679   0.27859   0.27987   0.28190   0.28252
 Alpha virt. eigenvalues --    0.28325   0.28550   0.28647   0.28761   0.28813
 Alpha virt. eigenvalues --    0.29211   0.29220   0.29383   0.29782   0.30377
 Alpha virt. eigenvalues --    0.30554   0.30910   0.30966   0.31129   0.31442
 Alpha virt. eigenvalues --    0.31640   0.31831   0.31920   0.32470   0.32653
 Alpha virt. eigenvalues --    0.32827   0.32970   0.33256   0.33723   0.34005
 Alpha virt. eigenvalues --    0.34090   0.34285   0.34358   0.34702   0.35070
 Alpha virt. eigenvalues --    0.35400   0.35796   0.36026   0.36182   0.36323
 Alpha virt. eigenvalues --    0.36490   0.36572   0.36731   0.36959   0.37386
 Alpha virt. eigenvalues --    0.37571   0.37947   0.38158   0.38572   0.38894
 Alpha virt. eigenvalues --    0.39104   0.39317   0.39533   0.39707   0.40044
 Alpha virt. eigenvalues --    0.40406   0.40858   0.41195   0.41408   0.41824
 Alpha virt. eigenvalues --    0.41912   0.42179   0.42340   0.42609   0.42932
 Alpha virt. eigenvalues --    0.43229   0.43520   0.43597   0.43726   0.43784
 Alpha virt. eigenvalues --    0.44100   0.44349   0.44605   0.44751   0.44929
 Alpha virt. eigenvalues --    0.45213   0.45403   0.45568   0.45684   0.45931
 Alpha virt. eigenvalues --    0.46122   0.46404   0.46450   0.46597   0.46643
 Alpha virt. eigenvalues --    0.46930   0.47206   0.47500   0.47696   0.47977
 Alpha virt. eigenvalues --    0.48183   0.48467   0.48608   0.48805   0.48828
 Alpha virt. eigenvalues --    0.49026   0.49300   0.49346   0.49820   0.49986
 Alpha virt. eigenvalues --    0.50165   0.50292   0.50502   0.50782   0.50913
 Alpha virt. eigenvalues --    0.51086   0.51305   0.51423   0.51636   0.51683
 Alpha virt. eigenvalues --    0.51941   0.51979   0.52154   0.52277   0.52385
 Alpha virt. eigenvalues --    0.52645   0.52859   0.52988   0.53159   0.53396
 Alpha virt. eigenvalues --    0.53647   0.53776   0.53892   0.54174   0.54250
 Alpha virt. eigenvalues --    0.54484   0.54617   0.54849   0.54914   0.55199
 Alpha virt. eigenvalues --    0.55351   0.55603   0.55714   0.55909   0.56353
 Alpha virt. eigenvalues --    0.56404   0.56928   0.57191   0.57384   0.57558
 Alpha virt. eigenvalues --    0.57623   0.57749   0.57948   0.58046   0.58140
 Alpha virt. eigenvalues --    0.58272   0.58514   0.58698   0.58902   0.59031
 Alpha virt. eigenvalues --    0.59171   0.59299   0.59621   0.59741   0.59828
 Alpha virt. eigenvalues --    0.59939   0.60048   0.60138   0.60277   0.60350
 Alpha virt. eigenvalues --    0.60418   0.60529   0.60658   0.60873   0.60888
 Alpha virt. eigenvalues --    0.61093   0.61198   0.61237   0.61322   0.61338
 Alpha virt. eigenvalues --    0.61534   0.61762   0.61880   0.62225   0.62284
 Alpha virt. eigenvalues --    0.62406   0.62670   0.62709   0.62788   0.62928
 Alpha virt. eigenvalues --    0.63074   0.63156   0.63317   0.63516   0.63668
 Alpha virt. eigenvalues --    0.63888   0.64055   0.64150   0.64247   0.64371
 Alpha virt. eigenvalues --    0.64472   0.64567   0.64646   0.64816   0.64873
 Alpha virt. eigenvalues --    0.64938   0.65144   0.65397   0.65437   0.65521
 Alpha virt. eigenvalues --    0.65574   0.65706   0.65876   0.66049   0.66165
 Alpha virt. eigenvalues --    0.66439   0.66582   0.66686   0.66794   0.66943
 Alpha virt. eigenvalues --    0.67043   0.67065   0.67130   0.67278   0.67340
 Alpha virt. eigenvalues --    0.67472   0.67710   0.67809   0.67875   0.68016
 Alpha virt. eigenvalues --    0.68193   0.68345   0.68574   0.68618   0.68742
 Alpha virt. eigenvalues --    0.68884   0.68944   0.69112   0.69208   0.69314
 Alpha virt. eigenvalues --    0.69475   0.69571   0.69784   0.69856   0.69872
 Alpha virt. eigenvalues --    0.70074   0.70133   0.70290   0.70387   0.70524
 Alpha virt. eigenvalues --    0.70754   0.70823   0.70877   0.71076   0.71283
 Alpha virt. eigenvalues --    0.71357   0.71574   0.71716   0.71745   0.71840
 Alpha virt. eigenvalues --    0.72107   0.72197   0.72280   0.72474   0.72507
 Alpha virt. eigenvalues --    0.72837   0.73081   0.73120   0.73197   0.73653
 Alpha virt. eigenvalues --    0.73678   0.73864   0.74115   0.74203   0.74329
 Alpha virt. eigenvalues --    0.74509   0.74579   0.74738   0.74848   0.75109
 Alpha virt. eigenvalues --    0.75184   0.75488   0.75529   0.75643   0.75799
 Alpha virt. eigenvalues --    0.75944   0.75977   0.76271   0.76457   0.76698
 Alpha virt. eigenvalues --    0.76857   0.77218   0.77271   0.77498   0.77680
 Alpha virt. eigenvalues --    0.77906   0.78024   0.78237   0.78524   0.78567
 Alpha virt. eigenvalues --    0.78807   0.79130   0.79221   0.79620   0.79769
 Alpha virt. eigenvalues --    0.80019   0.80166   0.80406   0.80560   0.80786
 Alpha virt. eigenvalues --    0.81248   0.81568   0.81974   0.82252   0.82412
 Alpha virt. eigenvalues --    0.82687   0.83040   0.83330   0.83465   0.83718
 Alpha virt. eigenvalues --    0.83963   0.84181   0.84594   0.84753   0.84938
 Alpha virt. eigenvalues --    0.85219   0.85301   0.85631   0.85697   0.86218
 Alpha virt. eigenvalues --    0.86490   0.86709   0.86818   0.87066   0.87340
 Alpha virt. eigenvalues --    0.87843   0.87927   0.88104   0.88432   0.88765
 Alpha virt. eigenvalues --    0.89000   0.89434   0.89743   0.89997   0.90022
 Alpha virt. eigenvalues --    0.90242   0.90509   0.90726   0.91132   0.91570
 Alpha virt. eigenvalues --    0.91632   0.91961   0.92234   0.92523   0.92902
 Alpha virt. eigenvalues --    0.93224   0.93330   0.93708   0.94025   0.94379
 Alpha virt. eigenvalues --    0.94558   0.94860   0.95023   0.95320   0.95636
 Alpha virt. eigenvalues --    0.95754   0.96139   0.96447   0.96543   0.96784
 Alpha virt. eigenvalues --    0.96883   0.97292   0.97455   0.97684   0.98261
 Alpha virt. eigenvalues --    0.98447   0.98777   0.99334   0.99404   0.99750
 Alpha virt. eigenvalues --    1.00084   1.00428   1.00721   1.00953   1.01341
 Alpha virt. eigenvalues --    1.01448   1.01695   1.01951   1.02496   1.02817
 Alpha virt. eigenvalues --    1.02977   1.03186   1.03518   1.03642   1.03923
 Alpha virt. eigenvalues --    1.04276   1.04913   1.04966   1.05140   1.05543
 Alpha virt. eigenvalues --    1.05667   1.06173   1.06256   1.06713   1.06920
 Alpha virt. eigenvalues --    1.07087   1.07245   1.07803   1.08111   1.08225
 Alpha virt. eigenvalues --    1.08690   1.08795   1.08906   1.09265   1.09500
 Alpha virt. eigenvalues --    1.09699   1.10005   1.10403   1.10853   1.11039
 Alpha virt. eigenvalues --    1.11296   1.11614   1.11769   1.11857   1.12321
 Alpha virt. eigenvalues --    1.12407   1.12730   1.13219   1.13525   1.13545
 Alpha virt. eigenvalues --    1.13902   1.13956   1.14246   1.14607   1.14901
 Alpha virt. eigenvalues --    1.15156   1.15242   1.15660   1.15815   1.16316
 Alpha virt. eigenvalues --    1.16572   1.16718   1.17103   1.17566   1.17717
 Alpha virt. eigenvalues --    1.17949   1.18190   1.18386   1.18574   1.18770
 Alpha virt. eigenvalues --    1.18908   1.19105   1.19414   1.19747   1.19976
 Alpha virt. eigenvalues --    1.20207   1.20358   1.20526   1.20631   1.21179
 Alpha virt. eigenvalues --    1.21329   1.21400   1.21689   1.21852   1.22050
 Alpha virt. eigenvalues --    1.22344   1.22414   1.22631   1.22836   1.23416
 Alpha virt. eigenvalues --    1.23564   1.23838   1.24169   1.24493   1.24600
 Alpha virt. eigenvalues --    1.24765   1.24991   1.25104   1.25318   1.25789
 Alpha virt. eigenvalues --    1.25943   1.26122   1.26291   1.26659   1.26690
 Alpha virt. eigenvalues --    1.27093   1.27355   1.27688   1.27946   1.28253
 Alpha virt. eigenvalues --    1.28410   1.28863   1.29105   1.29256   1.29641
 Alpha virt. eigenvalues --    1.29750   1.30151   1.30322   1.30482   1.30656
 Alpha virt. eigenvalues --    1.30863   1.31166   1.31415   1.31721   1.32149
 Alpha virt. eigenvalues --    1.32482   1.32858   1.32934   1.33209   1.33353
 Alpha virt. eigenvalues --    1.33450   1.33895   1.34147   1.34436   1.34640
 Alpha virt. eigenvalues --    1.34984   1.35153   1.35343   1.35479   1.35641
 Alpha virt. eigenvalues --    1.35714   1.35830   1.36243   1.36633   1.36871
 Alpha virt. eigenvalues --    1.37135   1.37653   1.37978   1.38167   1.38195
 Alpha virt. eigenvalues --    1.38378   1.39264   1.39338   1.39353   1.39572
 Alpha virt. eigenvalues --    1.40162   1.40201   1.40446   1.40680   1.40994
 Alpha virt. eigenvalues --    1.41256   1.41729   1.41911   1.42114   1.42303
 Alpha virt. eigenvalues --    1.42756   1.43114   1.43280   1.43436   1.43627
 Alpha virt. eigenvalues --    1.44154   1.44435   1.44619   1.44824   1.45392
 Alpha virt. eigenvalues --    1.45485   1.45898   1.46100   1.46199   1.46641
 Alpha virt. eigenvalues --    1.46855   1.47029   1.47371   1.47932   1.48367
 Alpha virt. eigenvalues --    1.48544   1.48697   1.48836   1.49023   1.49387
 Alpha virt. eigenvalues --    1.49659   1.50190   1.50359   1.50480   1.50724
 Alpha virt. eigenvalues --    1.51185   1.51321   1.51501   1.51641   1.51714
 Alpha virt. eigenvalues --    1.52281   1.52458   1.53048   1.53152   1.53471
 Alpha virt. eigenvalues --    1.53516   1.53549   1.53945   1.54479   1.54914
 Alpha virt. eigenvalues --    1.55192   1.55291   1.55394   1.55717   1.56046
 Alpha virt. eigenvalues --    1.56222   1.56600   1.57272   1.57570   1.57941
 Alpha virt. eigenvalues --    1.58036   1.58217   1.58532   1.58891   1.58949
 Alpha virt. eigenvalues --    1.59180   1.59617   1.59875   1.59993   1.60319
 Alpha virt. eigenvalues --    1.60632   1.60829   1.61170   1.61560   1.61674
 Alpha virt. eigenvalues --    1.61780   1.62313   1.62400   1.62586   1.62818
 Alpha virt. eigenvalues --    1.63036   1.63408   1.63656   1.63854   1.64407
 Alpha virt. eigenvalues --    1.64624   1.64685   1.64965   1.65133   1.65593
 Alpha virt. eigenvalues --    1.65782   1.65881   1.66427   1.66549   1.66796
 Alpha virt. eigenvalues --    1.67018   1.67269   1.67398   1.67440   1.67912
 Alpha virt. eigenvalues --    1.68006   1.68399   1.68576   1.68673   1.69022
 Alpha virt. eigenvalues --    1.69279   1.69569   1.69805   1.69985   1.70070
 Alpha virt. eigenvalues --    1.70440   1.70496   1.70802   1.70922   1.71253
 Alpha virt. eigenvalues --    1.71295   1.71573   1.71861   1.71948   1.72126
 Alpha virt. eigenvalues --    1.72363   1.72522   1.72888   1.73094   1.73197
 Alpha virt. eigenvalues --    1.73458   1.73738   1.73770   1.74093   1.74156
 Alpha virt. eigenvalues --    1.74289   1.74337   1.74446   1.74956   1.75184
 Alpha virt. eigenvalues --    1.75368   1.75475   1.75716   1.75882   1.76141
 Alpha virt. eigenvalues --    1.76358   1.76563   1.76799   1.76896   1.77059
 Alpha virt. eigenvalues --    1.77269   1.77509   1.77612   1.77707   1.77750
 Alpha virt. eigenvalues --    1.77944   1.78203   1.78263   1.78518   1.78600
 Alpha virt. eigenvalues --    1.78749   1.78910   1.78965   1.79184   1.79232
 Alpha virt. eigenvalues --    1.79468   1.79652   1.79707   1.80503   1.80675
 Alpha virt. eigenvalues --    1.80810   1.80854   1.81020   1.81113   1.81172
 Alpha virt. eigenvalues --    1.81341   1.81363   1.81674   1.82122   1.82204
 Alpha virt. eigenvalues --    1.82244   1.82477   1.82523   1.82693   1.82913
 Alpha virt. eigenvalues --    1.82929   1.83068   1.83204   1.83384   1.83460
 Alpha virt. eigenvalues --    1.83698   1.83820   1.84011   1.84248   1.84293
 Alpha virt. eigenvalues --    1.84606   1.84827   1.84953   1.85261   1.85420
 Alpha virt. eigenvalues --    1.85650   1.85852   1.86035   1.86095   1.86299
 Alpha virt. eigenvalues --    1.86429   1.86477   1.86708   1.86895   1.87057
 Alpha virt. eigenvalues --    1.87096   1.87348   1.87512   1.87566   1.87995
 Alpha virt. eigenvalues --    1.88092   1.88132   1.88355   1.88600   1.88733
 Alpha virt. eigenvalues --    1.88933   1.89027   1.89117   1.89572   1.89706
 Alpha virt. eigenvalues --    1.89949   1.90122   1.90392   1.90610   1.90735
 Alpha virt. eigenvalues --    1.90933   1.91020   1.91277   1.91742   1.91799
 Alpha virt. eigenvalues --    1.91871   1.91960   1.92271   1.92535   1.92629
 Alpha virt. eigenvalues --    1.92753   1.92801   1.93104   1.93293   1.93373
 Alpha virt. eigenvalues --    1.93686   1.93958   1.94187   1.94245   1.94340
 Alpha virt. eigenvalues --    1.94707   1.95074   1.95209   1.95384   1.95688
 Alpha virt. eigenvalues --    1.95875   1.95986   1.96150   1.96524   1.96576
 Alpha virt. eigenvalues --    1.96837   1.97030   1.97061   1.97197   1.97475
 Alpha virt. eigenvalues --    1.97713   1.97950   1.98163   1.98209   1.98564
 Alpha virt. eigenvalues --    1.98748   1.98961   1.99139   1.99333   1.99513
 Alpha virt. eigenvalues --    1.99744   1.99995   2.00042   2.00313   2.00777
 Alpha virt. eigenvalues --    2.01008   2.01152   2.01196   2.01402   2.01496
 Alpha virt. eigenvalues --    2.01766   2.01947   2.02367   2.02718   2.02924
 Alpha virt. eigenvalues --    2.03216   2.03270   2.03332   2.04367   2.04944
 Alpha virt. eigenvalues --    2.05075   2.05294   2.05497   2.05720   2.05794
 Alpha virt. eigenvalues --    2.06138   2.06293   2.06435   2.06534   2.06912
 Alpha virt. eigenvalues --    2.07071   2.07490   2.07616   2.07893   2.08089
 Alpha virt. eigenvalues --    2.08128   2.08751   2.08849   2.09071   2.09582
 Alpha virt. eigenvalues --    2.09791   2.09995   2.10420   2.10576   2.10698
 Alpha virt. eigenvalues --    2.10760   2.11304   2.11508   2.11823   2.12029
 Alpha virt. eigenvalues --    2.12271   2.12453   2.12541   2.13137   2.13332
 Alpha virt. eigenvalues --    2.13475   2.13652   2.13858   2.14471   2.14821
 Alpha virt. eigenvalues --    2.15272   2.15645   2.15904   2.16016   2.16446
 Alpha virt. eigenvalues --    2.16702   2.16807   2.16948   2.17602   2.17854
 Alpha virt. eigenvalues --    2.18194   2.18510   2.18661   2.18806   2.19408
 Alpha virt. eigenvalues --    2.19492   2.19778   2.19996   2.20052   2.20272
 Alpha virt. eigenvalues --    2.20351   2.20679   2.20805   2.21592   2.21703
 Alpha virt. eigenvalues --    2.22081   2.22274   2.22689   2.22888   2.23155
 Alpha virt. eigenvalues --    2.23381   2.24211   2.24636   2.24765   2.25189
 Alpha virt. eigenvalues --    2.25458   2.25787   2.26017   2.26191   2.26521
 Alpha virt. eigenvalues --    2.26872   2.27008   2.27129   2.27170   2.27354
 Alpha virt. eigenvalues --    2.27539   2.28548   2.28778   2.28916   2.29034
 Alpha virt. eigenvalues --    2.29686   2.29801   2.30124   2.30219   2.30353
 Alpha virt. eigenvalues --    2.30785   2.30981   2.31319   2.31780   2.32028
 Alpha virt. eigenvalues --    2.32488   2.32684   2.32960   2.33145   2.33479
 Alpha virt. eigenvalues --    2.34458   2.34900   2.34986   2.35180   2.35453
 Alpha virt. eigenvalues --    2.35818   2.36168   2.36858   2.36958   2.37364
 Alpha virt. eigenvalues --    2.37451   2.37997   2.38311   2.38749   2.38840
 Alpha virt. eigenvalues --    2.39416   2.39725   2.40055   2.40762   2.40811
 Alpha virt. eigenvalues --    2.41342   2.41613   2.41740   2.41897   2.42267
 Alpha virt. eigenvalues --    2.42625   2.43015   2.43206   2.43752   2.43825
 Alpha virt. eigenvalues --    2.44162   2.44420   2.44691   2.45142   2.45161
 Alpha virt. eigenvalues --    2.45831   2.45998   2.46267   2.46785   2.46898
 Alpha virt. eigenvalues --    2.47235   2.47317   2.48148   2.48263   2.48401
 Alpha virt. eigenvalues --    2.49003   2.49169   2.49220   2.49457   2.50203
 Alpha virt. eigenvalues --    2.50442   2.50722   2.50762   2.51318   2.51533
 Alpha virt. eigenvalues --    2.51667   2.51849   2.52208   2.52406   2.52814
 Alpha virt. eigenvalues --    2.52882   2.53004   2.53709   2.53832   2.53976
 Alpha virt. eigenvalues --    2.54412   2.54740   2.55329   2.55681   2.56051
 Alpha virt. eigenvalues --    2.56244   2.56265   2.56334   2.56888   2.57265
 Alpha virt. eigenvalues --    2.57609   2.57950   2.58173   2.58234   2.58489
 Alpha virt. eigenvalues --    2.58950   2.59206   2.59508   2.59560   2.59758
 Alpha virt. eigenvalues --    2.60866   2.60945   2.61178   2.61381   2.61474
 Alpha virt. eigenvalues --    2.61836   2.61946   2.62326   2.62917   2.63162
 Alpha virt. eigenvalues --    2.63647   2.63989   2.64079   2.64365   2.64974
 Alpha virt. eigenvalues --    2.65204   2.66012   2.66089   2.66318   2.66886
 Alpha virt. eigenvalues --    2.67370   2.67735   2.67904   2.68332   2.68356
 Alpha virt. eigenvalues --    2.69070   2.69664   2.69849   2.70360   2.70686
 Alpha virt. eigenvalues --    2.71206   2.71442   2.72393   2.72612   2.73024
 Alpha virt. eigenvalues --    2.73175   2.73529   2.73640   2.73708   2.73853
 Alpha virt. eigenvalues --    2.74401   2.74682   2.74817   2.75146   2.75456
 Alpha virt. eigenvalues --    2.75503   2.75597   2.75641   2.75911   2.76458
 Alpha virt. eigenvalues --    2.76883   2.76970   2.77017   2.77387   2.77598
 Alpha virt. eigenvalues --    2.77999   2.78250   2.78404   2.78557   2.78644
 Alpha virt. eigenvalues --    2.78743   2.79023   2.79407   2.79535   2.79612
 Alpha virt. eigenvalues --    2.79669   2.79763   2.80061   2.80155   2.80282
 Alpha virt. eigenvalues --    2.80654   2.80972   2.81301   2.81502   2.81542
 Alpha virt. eigenvalues --    2.81815   2.82255   2.82467   2.82744   2.83058
 Alpha virt. eigenvalues --    2.83806   2.83989   2.84260   2.84464   2.84655
 Alpha virt. eigenvalues --    2.84791   2.84974   2.85249   2.85705   2.86111
 Alpha virt. eigenvalues --    2.86261   2.86331   2.86460   2.86693   2.86949
 Alpha virt. eigenvalues --    2.87113   2.87364   2.87559   2.87696   2.88028
 Alpha virt. eigenvalues --    2.88500   2.88670   2.89178   2.89201   2.89421
 Alpha virt. eigenvalues --    2.89640   2.89714   2.90022   2.90128   2.90443
 Alpha virt. eigenvalues --    2.90561   2.91168   2.91717   2.91945   2.92454
[...]
 **** Fit       0.000437
 **** Fit       0.000191
 **** Fit      -0.000091
 **** Fit      -0.000367
 **** Fit      -0.005787
 **** Fit      -0.005181
 **** Fit       0.000291
 **** Fit       0.000134
 **** Fit      -0.000123
 **** Fit      -0.000427
 **** Fit      -0.004204
 **** Fit      -0.003457
 **** Fit      -0.000374
 **** Fit      -0.000281
 **** Fit      -0.000489
 **** Fit      -0.000860
 **** Fit      -0.002902
 **** Fit      -0.002018
 **** Fit      -0.001112
 **** Fit      -0.001063
 **** Fit      -0.001861
 **** Fit      -0.031746
 **** Fit      -0.027200
 **** Fit      -0.024084
 **** Fit      -0.022623
 **** Fit      -0.023080
 **** Fit      -0.024484
 **** Fit      -0.020793
 **** Fit      -0.018088
 **** Fit      -0.016385
 **** Fit      -0.015746
 **** Fit      -0.016280
 **** Fit      -0.018144
 **** Fit      -0.016735
 **** Fit      -0.014063
 **** Fit      -0.012185
 **** Fit      -0.011045
 **** Fit      -0.010648
 **** Fit      -0.011036
 **** Fit      -0.012269
 **** Fit      -0.014415
 **** Fit      -0.011100
 **** Fit      -0.009220
 **** Fit      -0.007930
 **** Fit      -0.007169
 **** Fit      -0.006920
 **** Fit      -0.007191
 **** Fit      -0.007994
 **** Fit      -0.009329
 **** Fit      -0.011166
 **** Fit      -0.013408
 **** Fit      -0.008306
 **** Fit      -0.006623
 **** Fit      -0.005446
 **** Fit      -0.004688
 **** Fit      -0.004310
 **** Fit      -0.004301
 **** Fit      -0.004653
 **** Fit      -0.005352
 **** Fit      -0.006365
 **** Fit      -0.007621
 **** Fit      -0.008994
 **** Fit      -0.010292
 **** Fit      -0.011258
 **** Fit      -0.011652
 **** Fit      -0.005214
 **** Fit      -0.003981
 **** Fit      -0.003141
 **** Fit      -0.002633
 **** Fit      -0.002431
 **** Fit      -0.002519
 **** Fit      -0.002881
 **** Fit      -0.003486
 **** Fit      -0.004281
 **** Fit      -0.005181
 **** Fit      -0.006067
 **** Fit      -0.006799
 **** Fit      -0.007254
 **** Fit      -0.002731
 **** Fit      -0.001953
 **** Fit      -0.001466
 **** Fit      -0.001245
 **** Fit      -0.001274
 **** Fit      -0.001532
 **** Fit      -0.001989
 **** Fit      -0.002594
 **** Fit      -0.003274
 **** Fit      -0.003940
 **** Fit      -0.004503
 **** Fit      -0.001197
 **** Fit      -0.000757
 **** Fit      -0.000539
 **** Fit      -0.000536
 **** Fit      -0.000730
 **** Fit      -0.001094
 **** Fit      -0.001584
 **** Fit      -0.002141
 **** Fit      -0.002699
 **** Fit      -0.000448
 **** Fit      -0.000202
 **** Fit      -0.000160
 **** Fit      -0.000313
 **** Fit      -0.000637
 **** Fit      -0.001088
 **** Fit      -0.001604
 **** Fit      -0.000040
 **** Fit      -0.000167
 **** Fit      -0.000464
 **** Fit      -0.000885
 **** Fit      -0.013233
 **** Fit      -0.010488
 **** Fit      -0.008976
 **** Fit      -0.008654
 **** Fit      -0.006522
 **** Fit      -0.005370
 **** Fit      -0.004851
 **** Fit      -0.009694
 **** Fit      -0.006273
 **** Fit      -0.004097
 **** Fit      -0.002882
 **** Fit      -0.002342
 **** Fit      -0.002228
 **** Fit      -0.011087
 **** Fit      -0.007119
 **** Fit      -0.004110
 **** Fit      -0.002108
 **** Fit      -0.000970
 **** Fit      -0.000480
 **** Fit      -0.000423
 **** Fit      -0.000614
 **** Fit      -0.017305
 **** Fit      -0.017405
 **** Fit      -0.016566
 **** Fit      -0.014650
 **** Fit      -0.011830
 **** Fit      -0.008568
 **** Fit      -0.005422
 **** Fit      -0.002821
 **** Fit      -0.000963
 **** Fit       0.000160
 **** Fit       0.000677
 **** Fit       0.000757
 **** Fit       0.000562
 **** Fit      -0.012515
 **** Fit      -0.011964
 **** Fit      -0.010644
 **** Fit      -0.008586
 **** Fit      -0.006068
 **** Fit      -0.003531
 **** Fit      -0.001381
 **** Fit       0.000147
 **** Fit       0.001024
 **** Fit       0.001352
 **** Fit       0.001290
 **** Fit       0.000995
 **** Fit      -0.012443
 **** Fit      -0.008962
 **** Fit      -0.008081
 **** Fit      -0.006579
 **** Fit      -0.004619
 **** Fit      -0.002540
 **** Fit      -0.000724
 **** Fit       0.000573
 **** Fit       0.001281
 **** Fit       0.001481
 **** Fit       0.001326
 **** Fit       0.000968
 **** Fit      -0.009225
 **** Fit      -0.006274
 **** Fit      -0.005216
 **** Fit      -0.003638
 **** Fit      -0.001866
 **** Fit      -0.000312
 **** Fit       0.000723
 **** Fit       0.001168
 **** Fit       0.001133
 **** Fit       0.000792
 **** Fit      -0.006672
 **** Fit      -0.004216
 **** Fit      -0.003013
 **** Fit      -0.001422
 **** Fit      -0.000094
 **** Fit       0.000545
 **** Fit       0.000500
 **** Fit      -0.004590
 **** Fit      -0.002637
 **** Fit      -0.001334
 **** Fit      -0.000343
 **** Fit      -0.000576
 **** Fit      -0.002703
 **** Fit      -0.001444
 **** Fit      -0.006217
 **** Fit      -0.007404
 **** Fit      -0.011015
 **** Fit      -0.004132
 **** Fit      -0.004761
 **** Fit      -0.006924
 **** Fit      -0.010365
 **** Fit      -0.014468
 **** Fit      -0.018502
 **** Fit      -0.003422
 **** Fit      -0.002866
 **** Fit      -0.002987
 **** Fit      -0.004053
 **** Fit      -0.006088
 **** Fit      -0.008864
 **** Fit      -0.011984
 **** Fit      -0.015021
 **** Fit      -0.017652
 **** Fit      -0.002277
 **** Fit      -0.001970
 **** Fit      -0.002105
 **** Fit      -0.002891
 **** Fit      -0.004389
 **** Fit      -0.006484
 **** Fit      -0.008922
 **** Fit      -0.011392
 **** Fit      -0.013609
 **** Fit      -0.001593
 **** Fit      -0.001391
 **** Fit      -0.001420
 **** Fit      -0.001870
 **** Fit      -0.002853
 **** Fit      -0.004355
 **** Fit      -0.006233
 **** Fit      -0.008258
 **** Fit      -0.010172
 **** Fit      -0.011743
 **** Fit      -0.012703
 **** Fit      -0.001050
 **** Fit      -0.000965
 **** Fit      -0.000983
 **** Fit      -0.001250
 **** Fit      -0.001886
 **** Fit      -0.002933
 **** Fit      -0.004334
 **** Fit      -0.005939
 **** Fit      -0.007548
 **** Fit      -0.008962
 **** Fit      -0.010044
 **** Fit      -0.010810
 **** Fit      -0.011449
 **** Fit      -0.012090
 **** Fit      -0.010167
 **** Fit      -0.000663
 **** Fit      -0.000727
 **** Fit      -0.000972
 **** Fit      -0.001512
 **** Fit      -0.002405
 **** Fit      -0.003610
 **** Fit      -0.004993
 **** Fit      -0.006366
 **** Fit      -0.007554
 **** Fit      -0.008472
 **** Fit      -0.009167
 **** Fit      -0.009727
 **** Fit      -0.008043
 **** Fit      -0.008072
 **** Fit      -0.000512
 **** Fit      -0.000602
 **** Fit      -0.000823
 **** Fit      -0.001280
 **** Fit      -0.002038
 **** Fit      -0.003072
 **** Fit      -0.004262
 **** Fit      -0.005433
 **** Fit      -0.006431
 **** Fit      -0.007193
 **** Fit      -0.007730
 **** Fit      -0.006240
 **** Fit      -0.006091
 **** Fit      -0.000599
 **** Fit      -0.000718
 **** Fit      -0.001015
 **** Fit      -0.001578
 **** Fit      -0.002429
 **** Fit      -0.003473
 **** Fit      -0.004521
 **** Fit      -0.005392
 **** Fit      -0.005982
 **** Fit      -0.004709
 **** Fit      -0.004384
 **** Fit      -0.001041
 **** Fit      -0.000959
 **** Fit      -0.001178
 **** Fit      -0.001748
 **** Fit      -0.002648
 **** Fit      -0.003647
 **** Fit      -0.004416
 **** Fit      -0.003424
 **** Fit      -0.002850
 **** Fit      -0.001894
 **** Fit      -0.001553
 **** Fit      -0.002012
 **** Fit      -0.002945
 **** Fit      -0.002374
 **** Fit      -0.063870
 **** Fit      -0.058894
 **** Fit      -0.043422
 **** Fit      -0.052013
 **** Fit      -0.061429
 **** Fit      -0.037055
 **** Fit      -0.044670
 **** Fit      -0.051948
 **** Fit      -0.058973
 **** Fit      -0.066634
 **** Fit      -0.033319
 **** Fit      -0.040779
 **** Fit      -0.027133
 **** Fit      -0.034145
 **** Fit      -0.029029
 **** Fit      -0.035765
 **** Fit      -0.029904
 **** Fit      -0.033168
 **** Fit      -0.024235
 **** Fit      -0.035142
 **** Fit      -0.031430
 **** Fit      -0.020662
 **** Fit      -0.015087
 **** Fit      -0.018273
 **** Fit      -0.027430
 **** Fit      -0.048226
 **** Fit      -0.048499
 **** Fit      -0.039683
 **** Fit      -0.016676
 **** Fit      -0.009931
 **** Fit      -0.007409
 **** Fit      -0.008847
 **** Fit      -0.013566
 **** Fit      -0.020915
 **** Fit      -0.030277
 **** Fit      -0.040445
 **** Fit      -0.005861
 **** Fit      -0.002134
 **** Fit      -0.001028
 **** Fit      -0.002238
 **** Fit      -0.005354
 **** Fit      -0.010073
 **** Fit      -0.016237
 **** Fit      -0.023800
 **** Fit      -0.032803
 **** Fit      -0.043220
 **** Fit      -0.054411
 **** Fit       0.001472
 **** Fit      -0.001800
 **** Fit      -0.006082
 **** Fit      -0.011344
 **** Fit      -0.017590
 **** Fit      -0.024897
 **** Fit      -0.033468
 **** Fit      -0.043638
 **** Fit      -0.055750
 **** Fit       0.001785
 **** Fit      -0.001970
 **** Fit      -0.006462
 **** Fit      -0.011715
 **** Fit      -0.017745
 **** Fit      -0.024630
 **** Fit      -0.032571
 **** Fit      -0.041955
 **** Fit      -0.053435
 **** Fit      -0.003297
 **** Fit      -0.007764
 **** Fit      -0.012857
 **** Fit      -0.018569
 **** Fit      -0.024947
 **** Fit      -0.032125
 **** Fit      -0.040390
 **** Fit      -0.050321
 **** Fit      -0.006892
 **** Fit      -0.011717
 **** Fit      -0.017105
 **** Fit      -0.023055
 **** Fit      -0.029603
 **** Fit      -0.036845
 **** Fit      -0.011578
 **** Fit      -0.016647
 **** Fit      -0.022220
 **** Fit      -0.028297
 **** Fit      -0.015746
 **** Fit      -0.020956
 **** Fit      -0.023054
 **** Fit      -0.003642
 **** Fit      -0.025176
 **** Fit      -0.005961
 **** Fit      -0.032774
 **** Fit      -0.042541
 **** Fit      -0.033794
 **** Fit      -0.040887
 **** Fit      -0.058914
 **** Fit      -0.043099
 **** Fit      -0.028657
 **** Fit      -0.002462
 **** Fit       0.003664
 **** Fit       0.001791
 **** Fit      -0.002154
 **** Fit       0.006191
 **** Fit       0.010538
 **** Fit       0.010142
 **** Fit       0.005833
 **** Fit      -0.000673
 **** Fit      -0.013123
 **** Fit      -0.002263
 **** Fit       0.007030
 **** Fit       0.013630
 **** Fit       0.016948
 **** Fit       0.016953
 **** Fit       0.014105
 **** Fit       0.009097
 **** Fit       0.002678
 **** Fit      -0.010576
 **** Fit       0.000851
 **** Fit       0.010273
 **** Fit       0.017248
 **** Fit       0.021464
 **** Fit       0.022873
 **** Fit       0.021747
 **** Fit       0.018526
 **** Fit       0.013657
 **** Fit       0.007555
 **** Fit       0.000587
 **** Fit      -0.016583
 **** Fit      -0.003650
 **** Fit       0.007213
 **** Fit       0.015885
 **** Fit       0.022159
 **** Fit       0.025878
 **** Fit       0.027113
 **** Fit       0.026189
 **** Fit       0.023504
 **** Fit       0.007556
 **** Fit       0.000518
 **** Fit      -0.023095
 **** Fit      -0.009105
 **** Fit       0.002671
 **** Fit       0.012394
 **** Fit       0.020027
 **** Fit       0.025435
 **** Fit       0.028561
 **** Fit       0.029596
 **** Fit       0.028940
 **** Fit      -0.020469
 **** Fit      -0.006651
 **** Fit       0.004843
 **** Fit       0.014211
 **** Fit       0.021417
 **** Fit       0.026334
 **** Fit       0.029000
 **** Fit       0.029814
 **** Fit      -0.017687
 **** Fit      -0.004663
 **** Fit       0.006101
 **** Fit       0.014723
 **** Fit       0.021098
 **** Fit       0.025084
 **** Fit       0.026866
 **** Fit      -0.025036
 **** Fit      -0.011123
 **** Fit       0.000371
 **** Fit       0.009598
 **** Fit       0.016432
 **** Fit      -0.022997
 **** Fit      -0.032624
 **** Fit      -0.041699
 **** Fit      -0.040343
 **** Fit      -0.031644
 **** Fit      -0.024335
 **** Fit      -0.026485
 **** Fit      -0.035248
 **** Fit      -0.051768
 **** Fit      -0.052765
 **** Fit      -0.050179
 **** Fit      -0.042850
 **** Fit      -0.032259
 **** Fit      -0.022389
 **** Fit      -0.016656
 **** Fit      -0.016550
 **** Fit      -0.021578
 **** Fit      -0.030058
 **** Fit      -0.039611
 **** Fit      -0.047428
 **** Fit      -0.063092
 **** Fit      -0.034429
 **** Fit      -0.023107
 **** Fit      -0.014390
 **** Fit      -0.009410
 **** Fit      -0.008600
 **** Fit      -0.011605
 **** Fit      -0.017651
 **** Fit      -0.025982
 **** Fit      -0.035803
 **** Fit      -0.045874
 **** Fit      -0.054486
 **** Fit      -0.060230
 **** Fit      -0.076035
 **** Fit      -0.033489
 **** Fit      -0.020998
 **** Fit      -0.011045
 **** Fit      -0.004343
 **** Fit      -0.002122
 **** Fit      -0.005915
 **** Fit      -0.012027
 **** Fit      -0.020020
 **** Fit      -0.029725
 **** Fit      -0.040816
 **** Fit      -0.052408
 **** Fit      -0.062973
 **** Fit      -0.074830
 **** Fit      -0.027710
 **** Fit      -0.004552
 **** Fit      -0.011897
 **** Fit      -0.020768
 **** Fit      -0.031511
 **** Fit      -0.044174
 **** Fit      -0.058128
 **** Fit      -0.047518
 -----------------------------------------------------------------
 Leave Link  602 at Wed Feb 26 19:46:37 2020, MaxMem=  1342177280 cpu:             162.3 elap:               8.2

 Test job not archived.
 1\1\GINC-COMPUTE-2-25\SP\RB3LYP\SVP\C54H93Ca1N15O26\PZHANG5\26-Feb-202
 0\0\\#b3lyp/svp scf=(tight,noincore,xqc) Test #IOP(5/87=12) Density=Cu
 rrent Pop=(MK,readradii) iop(6/33=2) iop(6/42=6)\\loop1.cluster1\\0,1\
 C,0,57.75094,38.77367,29.67767\C,0,58.70209,37.87235,28.96222\O,0,58.3
 7729,36.72479,28.73086\H,0,56.79872,38.24176,29.88412\H,0,58.20574,39.
 09846,30.63614\H,0,57.54008,39.6625,29.0462\N,0,59.90253,38.34675,28.5
 5286\C,0,60.87968,37.54133,27.82419\C,0,61.62364,36.66078,28.82799\O,0
 ,62.64334,37.07585,29.36364\C,0,61.76847,38.54051,27.0807\C,0,62.87751
 ,38.0876,26.20484\O,0,63.71314,38.92307,25.92098\O,0,62.92188,36.89603
 ,25.57779\H,0,60.11009,39.34326,28.73539\H,0,60.37803,36.93959,27.0391
 3\H,0,62.2364,39.19693,27.84077\H,0,61.1285,39.18637,26.4363\N,0,61.05
 557,35.49159,29.24481\C,0,61.53295,34.70945,30.38092\C,0,62.75201,33.8
 3965,30.10549\O,0,63.34168,33.34783,31.05787\C,0,60.36841,33.88771,30.
 95682\C,0,59.3056,34.83111,31.54738\C,0,58.33149,34.07999,32.44772\C,0
 ,57.26373,35.03336,33.0082\N,0,56.77652,34.56436,34.30369\H,0,60.15869
 ,35.22403,28.8342\H,0,61.85575,35.42198,31.17323\H,0,60.76046,33.24074
 ,31.76625\H,0,59.91115,33.23834,30.17336\H,0,58.77522,35.38393,30.7489
 6\H,0,59.81326,35.57774,32.20113\H,0,58.94707,33.67356,33.27898\H,0,57
 .83974,33.22945,31.92554\H,0,56.43152,35.12123,32.27252\H,0,57.68501,3
 6.05128,33.16331\H,0,56.00697,35.19186,34.62928\H,0,56.43462,33.57909,
 34.24646\H,0,57.55986,34.62461,34.99727\N,0,63.23389,33.67997,28.84538
 \C,0,64.58041,33.16692,28.5678\C,0,65.48134,34.32775,28.14559\O,0,66.6
 9455,34.17401,28.20632\C,0,64.58118,32.0248,27.51827\C,0,63.60531,32.3
 1179,26.42344\O,0,62.62885,31.59921,26.26504\O,0,63.76143,33.42444,25.
 70086\H,0,62.68439,34.06159,28.0659\H,0,65.04896,32.76765,29.49703\H,0
 ,64.28125,31.07289,27.99977\H,0,65.60406,31.89204,27.09659\N,0,64.9668
 6,35.54642,27.78921\C,0,65.79658,36.71294,27.56391\C,0,66.38037,36.814
 99,26.16482\O,0,67.18731,37.70367,25.94326\H,0,63.95488,35.69044,27.75
 73\H,0,66.59197,36.7412,28.33802\H,0,65.18046,37.62096,27.73493\N,0,66
 .006,35.96528,25.16135\C,0,66.59671,36.01046,23.8147\C,0,66.36942,37.3
 2155,23.04118\O,0,66.97642,37.5,21.99292\C,0,66.14363,34.77239,22.9939
 9\C,0,64.65599,34.56648,22.87646\O,0,63.89509,35.50783,22.94665\O,0,64
 .1529,33.3176,22.86277\H,0,65.31244,35.23934,25.36814\H,0,67.69591,35.
 91846,23.94165\H,0,66.53565,33.87126,23.51134\H,0,66.58996,34.78345,21
 .97827\N,0,65.5083,38.27184,23.49134\C,0,65.27771,39.56336,22.85345\C,
 0,63.90461,39.65634,22.20946\O,0,63.5421,40.72356,21.74375\H,0,64.9601
 4,38.04963,24.31499\H,0,66.03687,39.78926,22.07505\H,0,65.35797,40.349
 26,23.6384\N,0,63.11212,38.55082,22.10919\C,0,61.79131,38.54885,21.487
 39\C,0,60.75614,37.99434,22.45245\O,0,61.09957,37.37821,23.44632\C,0,6
 1.79076,37.7634,20.13285\C,0,62.5737,38.50474,19.05335\O,0,62.2683,36.
 44731,20.225\H,0,63.45983,37.67356,22.47834\H,0,61.48029,39.58937,21.2
 6622\H,0,60.74386,37.68742,19.76908\H,0,63.05983,36.41355,20.81191\H,0
 ,63.62437,38.66956,19.36847\H,0,62.5687,37.91521,18.11095\H,0,62.08544
 ,39.48246,18.85639\N,0,59.4389,38.23625,22.20243\C,0,58.34979,37.75669
 ,23.0462\C,0,57.45399,36.88559,22.18411\O,0,57.10218,37.2676,21.08032\
 C,0,57.54729,38.94348,23.65569\C,0,58.44167,39.75314,24.63124\C,0,56.3
 0284,38.42814,24.42081\C,0,57.78446,41.04514,25.12379\H,0,59.19395,38.
 79552,21.37487\H,0,58.72742,37.16176,23.90392\H,0,57.2094,39.59014,22.
 81729\H,0,59.39052,40.04113,24.13292\H,0,58.69772,39.11669,25.50936\H,
 0,56.61092,37.83044,25.30392\H,0,55.6571,39.25712,24.76416\H,0,55.6555
 5,37.80371,23.77796\H,0,57.59894,41.72195,24.26345\H,0,56.82913,40.859
 6,25.65296\H,0,58.46148,41.55299,25.84124\N,0,56.98699,35.72057,22.699
 06\C,0,56.1088,34.80742,21.99084\C,0,54.6965,34.8776,22.53907\O,0,54.4
 3188,35.57037,23.5047\C,0,56.66753,33.36131,22.13178\C,0,58.01517,33.2
 1478,21.42725\O,0,56.7662,32.98196,23.48301\H,0,57.23765,35.48838,23.6
 5115\H,0,56.03527,35.08767,20.92007\H,0,55.98365,32.63103,21.65543\H,0
 ,57.68104,33.16593,23.81442\H,0,58.41837,32.19523,21.60794\H,0,57.8854
 3,33.37545,20.33974\H,0,58.73068,33.96004,21.82779\N,0,53.73181,34.149
 32,21.9179\C,0,52.35929,34.01549,22.40399\C,0,52.38564,33.37658,23.778
 9\O,0,51.69585,33.83221,24.68341\C,0,51.55597,33.13709,21.40291\C,0,51
 .40818,33.87298,20.049\O,0,52.18257,31.87816,21.25883\H,0,54.00811,33.
 6178,21.08317\H,0,51.8542,35.00512,22.46841\H,0,50.53023,32.9709,21.79
 732\H,0,52.18833,31.6047,20.30477\H,0,50.87132,34.8343,20.19143\H,0,52
 .39409,34.08807,19.58545\H,0,50.82509,33.25297,19.33642\N,0,53.22214,3
 2.33226,24.00758\C,0,53.38232,31.67315,25.29311\C,0,53.87779,32.6414,2
 6.36985\O,0,53.35291,32.63014,27.47225\C,0,54.31098,30.44408,25.1333\C
 ,0,53.72582,29.45825,24.08622\C,0,54.26455,28.03815,24.25512\C,0,53.69
 527,27.09249,23.18376\N,0,54.21263,25.73675,23.36598\H,0,53.79877,32.0
 0486,23.2185\H,0,52.40332,31.26424,25.629\H,0,54.3649,29.94543,26.1232
 8\H,0,55.34682,30.73099,24.83393\H,0,53.9452,29.82371,23.05739\H,0,52.
 62238,29.39818,24.2015\H,0,53.96051,27.66735,25.25908\H,0,55.37193,28.
 04668,24.18797\H,0,53.9851,27.46172,22.1751\H,0,52.58198,27.07013,23.2
 3605\H,0,53.88673,25.13195,22.57783\H,0,55.25835,25.75029,23.36948\H,0
 ,53.86295,25.33869,24.26792\N,0,54.8767,33.52436,26.09809\C,0,55.38268
 ,34.50154,27.06775\C,0,54.33754,35.53696,27.44924\O,0,54.36426,35.9997
 5,28.58208\C,0,56.65909,35.15819,26.51616\C,0,57.81055,34.12819,26.573
 28\C,0,59.10329,34.55061,25.94964\O,0,59.17377,34.83669,24.76899\O,0,6
 0.22501,34.48081,26.67312\H,0,55.27738,33.51629,25.15733\H,0,55.67115,
 33.97888,28.00543\H,0,56.93399,36.05566,27.08719\H,0,56.42734,35.51083
 ,25.50671\H,0,57.50437,33.18274,26.08926\H,0,58.01584,33.90514,27.6442
 7\N,0,53.33879,35.88679,26.59111\C,0,52.23511,36.74429,26.97466\H,0,51
 .30294,36.14222,26.93501\H,0,52.33899,37.14633,28.00446\H,0,52.1414,37
 .5942,26.26744\H,0,53.32457,35.49102,25.64578\Ca,0,62.19104,34.85014,2
 5.03132\O,0,61.21703,33.96641,21.98065\H,0,61.55041,34.56918,21.28265\
 H,0,61.04022,33.13019,21.48449\O,0,60.87069,32.27433,24.14378\H,0,60.0
 8634,31.70847,23.93934\H,0,61.64667,31.67107,24.03038\\Version=ES64L-G
 16RevC.01\State=1-A\HF=-5565.0195386\RMSD=2.490e-10\Dipole=-24.1804391
 ,-15.4620563,6.9789268\Quadrupole=-198.6269353,85.1749012,113.4520342,
 110.4971037,4.0524638,78.0811759\PG=C01 [X(C54H93Ca1N15O26)]\\@


 I WANT TO KNOW HOW GOD CREATED THE WORLD.  I AM NOT INTERESTED IN
 THIS OR THAT PHENOMENON, IN THE SPECTRUM OF THIS OR THAT ELEMENT.
 I WANT TO KNOW HIS THOUGHTS, THE REST ARE DETAILS.
     -- ALBERT EINSTEIN
 Job cpu time:       4 days 21 hours 43 minutes 33.0 seconds.
 Elapsed time:       0 days  5 hours 55 minutes 32.4 seconds.
 File lengths (MBytes):  RWF=   1979 Int=      0 D2E=      0 Chk=    190 Scr=      2
 Normal termination of Gaussian 16 at Wed Feb 26 19:46:40 2020.
