 Entering Gaussian System, Link 0=g16
 Initial command:
 /share/apps/g16/c.01/g16/l1.exe "/uhpc/cheung/pzhang5/SPQM_Ca/WholeLoops/NNClusterSymmetryFunctionAsFeatures/MD_afterEM/loop1.cluster100/Gau-23767.inp" -scrdir="/uhpc/cheung/pzhang5/SPQM_Ca/WholeLoops/NNClusterSymmetryFunctionAsFeatures/MD_afterEM/loop1.cluster100/"
 Entering Link 1 = /share/apps/g16/c.01/g16/l1.exe PID=     23768.
  
 Copyright (c) 1988-2019, Gaussian, Inc.  All Rights Reserved.
  
 This is part of the Gaussian(R) 16 program.  It is based on
 the Gaussian(R) 09 system (copyright 2009, Gaussian, Inc.),
 the Gaussian(R) 03 system (copyright 2003, Gaussian, Inc.),
 the Gaussian(R) 98 system (copyright 1998, Gaussian, Inc.),
 the Gaussian(R) 94 system (copyright 1995, Gaussian, Inc.),
 the Gaussian 92(TM) system (copyright 1992, Gaussian, Inc.),
 the Gaussian 90(TM) system (copyright 1990, Gaussian, Inc.),
 the Gaussian 88(TM) system (copyright 1988, Gaussian, Inc.),
 the Gaussian 86(TM) system (copyright 1986, Carnegie Mellon
 University), and the Gaussian 82(TM) system (copyright 1983,
 Carnegie Mellon University). Gaussian is a federally registered
 trademark of Gaussian, Inc.
  
 This software contains proprietary and confidential information,
 including trade secrets, belonging to Gaussian, Inc.
  
 This software is provided under written license and may be
 used, copied, transmitted, or stored only in accord with that
 written license.
  
 The following legend is applicable only to US Government
 contracts under FAR:
  
                    RESTRICTED RIGHTS LEGEND
  
 Use, reproduction and disclosure by the US Government is
 subject to restrictions as set forth in subparagraphs (a)
 and (c) of the Commercial Computer Software - Restricted
 Rights clause in FAR 52.227-19.
  
 Gaussian, Inc.
 340 Quinnipiac St., Bldg. 40, Wallingford CT 06492
  
  
 ---------------------------------------------------------------
 Warning -- This program may not be used in any manner that
 competes with the business of Gaussian, Inc. or will provide
 assistance to any competitor of Gaussian, Inc.  The licensee
 of this program is prohibited from giving any competitor of
 Gaussian, Inc. access to this program.  By using this program,
 the user acknowledges that Gaussian, Inc. is engaged in the
 business of creating and licensing software in the field of
 computational chemistry and represents and warrants to the
 licensee that it is not a competitor of Gaussian, Inc. and that
 it will not use this program in any manner prohibited above.
 ---------------------------------------------------------------
  

 Cite this work as:
 Gaussian 16, Revision C.01,
 M. J. Frisch, G. W. Trucks, H. B. Schlegel, G. E. Scuseria, 
 M. A. Robb, J. R. Cheeseman, G. Scalmani, V. Barone, 
 G. A. Petersson, H. Nakatsuji, X. Li, M. Caricato, A. V. Marenich, 
 J. Bloino, B. G. Janesko, R. Gomperts, B. Mennucci, H. P. Hratchian, 
 J. V. Ortiz, A. F. Izmaylov, J. L. Sonnenberg, D. Williams-Young, 
 F. Ding, F. Lipparini, F. Egidi, J. Goings, B. Peng, A. Petrone, 
 T. Henderson, D. Ranasinghe, V. G. Zakrzewski, J. Gao, N. Rega, 
 G. Zheng, W. Liang, M. Hada, M. Ehara, K. Toyota, R. Fukuda, 
 J. Hasegawa, M. Ishida, T. Nakajima, Y. Honda, O. Kitao, H. Nakai, 
 T. Vreven, K. Throssell, J. A. Montgomery, Jr., J. E. Peralta, 
 F. Ogliaro, M. J. Bearpark, J. J. Heyd, E. N. Brothers, K. N. Kudin, 
 V. N. Staroverov, T. A. Keith, R. Kobayashi, J. Normand, 
 K. Raghavachari, A. P. Rendell, J. C. Burant, S. S. Iyengar, 
 J. Tomasi, M. Cossi, J. M. Millam, M. Klene, C. Adamo, R. Cammi, 
 J. W. Ochterski, R. L. Martin, K. Morokuma, O. Farkas, 
 J. B. Foresman, and D. J. Fox, Gaussian, Inc., Wallingford CT, 2019.
 
 ******************************************
 Gaussian 16:  ES64L-G16RevC.01  3-Jul-2019
                26-Feb-2020 
 ******************************************
 %chk=loop1.cluster100.chk
 %nprocshared=48
 Will use up to   48 processors via shared memory.
 %mem=10GB
 %nosave
 ----------------------------------------------------------------------
 #b3lyp/svp scf=(tight,noincore,xqc) Test #IOP(5/87=12) Density=Current
  Pop=(MK,readradii) iop(6/33=2) iop(6/42=6)
 ----------------------------------------------------------------------
 1/30=1,38=1,172=1/1;
 2/12=2,17=6,18=5,40=1/2;
 3/5=18,7=101,11=2,25=1,30=1,74=-5/1,2,3;
 4//1;
 5/5=4,8=3,13=1,32=2,38=5,87=12/2,8;
 6/7=2,8=2,9=2,10=2,15=8,20=101,22=-1,28=1,33=2,42=6/1,2;
 99/5=1,9=1/99;
 ----------------
 loop1.cluster100
 ----------------
 Symbolic Z-matrix:
 Charge =  0 Multiplicity = 1
 C                     40.27838  -0.14764   37.93687 
 C                     40.08207  -1.62123   37.89683 
 O                     40.70467  -2.28689   37.0841 
 H                     41.09193   0.15381   37.24479 
 H                     39.33323   0.35609   37.64827 
 H                     40.55758   0.14166   38.97139 
 N                     39.25227  -2.21278   38.79611 
 C                     39.04514  -3.64642   38.85697 
 C                     37.56103  -3.96159   38.99462 
 O                     37.18945  -4.81104   39.78341 
 C                     39.92199  -4.25637   39.97601 
 C                     39.64952  -3.75686   41.36762 
 O                     40.24341  -4.35044   42.41916 
 O                     38.91801  -2.8051    41.55511 
 H                     38.78475  -1.61408   39.49269 
 H                     39.36908  -4.12285   37.91433 
 H                     40.995   -4.0648    39.76283 
 H                     39.76249  -5.33652   39.96075 
 N                     36.65121  -3.23522   38.27777 
 C                     35.20859  -3.45898   38.37276 
 C                     34.6023  -3.24917   36.99768 
 O                     34.62806  -2.11833   36.53731 
 C                     34.57012  -2.44765   39.35747 
 C                     35.06478  -2.70161   40.78439 
 C                     34.5261  -1.70068   41.81399 
 C                     35.15888  -1.91073   43.20649 
 N                     36.61955  -1.83628   43.16013 
 H                     36.98704  -2.45403   37.70159 
 H                     34.99936  -4.46455   38.76808 
 H                     33.46262  -2.5438    39.33484 
 H                     34.83921  -1.41082   39.04923 
 H                     36.16196  -2.60014   40.75255 
 H                     34.78884  -3.7328    41.0964 
 H                     33.42153  -1.79919   41.90052 
 H                     34.75904  -0.66796   41.47639 
 H                     34.86419  -2.9007    43.62177 
 H                     34.77703  -1.12192   43.88838 
 H                     37.01247  -1.75992   44.12402 
 H                     36.97189  -2.73148   42.76268 
 H                     36.93958  -1.0175    42.59022 
 N                     34.05755  -4.2449    36.23177 
 C                     34.07106  -5.68853   36.46962 
 C                     33.21539  -6.18316   37.62931 
 O                     32.78407  -5.36693   38.4308 
 C                     35.49792  -6.20636   36.62339 
 C                     36.45223  -5.74011   35.60183 
 O                     36.2175  -5.88947   34.41182 
 O                     37.69342  -5.4654    36.01091 
 H                     33.67498  -3.95067   35.31772 
 H                     33.62863  -6.12742   35.54832 
 H                     35.4955  -7.28255   36.54445 
 H                     35.93395  -5.99519   37.61254 
 N                     32.87599  -7.50657   37.79356 
 C                     33.18229  -8.60231   36.86493 
 C                     33.70705  -9.81352   37.62456 
 O                     32.96324  -10.2984   38.46505 
 H                     32.28473  -7.74259   38.60597 
 H                     33.78332  -8.29493   36.00574 
 H                     32.22429  -8.92818   36.40882 
 N                     34.94085  -10.38909   37.45406 
 C                     36.01311  -9.93586   36.56701 
 C                     37.04863  -9.10647   37.33332 
 O                     37.91031  -8.51491   36.69797 
 C                     36.65577  -11.14778   35.85497 
 C                     37.1215  -12.20202   36.82824 
 O                     36.57733  -13.29382   36.84868 
 O                     38.09551  -11.93447   37.71363 
 H                     35.16633  -11.16911   38.09049 
 H                     35.61333  -9.29388   35.76314 
 H                     37.50846  -10.82943   35.21475 
 H                     35.88816  -11.59909   35.18991 
 N                     36.98296  -8.96536   38.69397 
 C                     37.81398  -8.0447    39.46278 
 C                     39.31902  -8.28738   39.48675 
 O                     40.00816  -7.58031   40.20198 
 H                     36.25252  -9.46537   39.21776 
 H                     37.45267  -8.06834   40.5141 
 H                     37.64612  -7.02856   39.06717 
 N                     39.90894  -9.25381   38.74447 
 C                     41.36331  -9.41716   38.6456 
 C                     42.03089  -8.23994   37.94997 
 O                     41.59118  -7.84924   36.87823 
 C                     41.69436  -10.7383   37.90472 
 C                     43.14094  -10.8257   37.40464 
 O                     40.85036  -10.921    36.80097 
 H                     39.3073  -9.88426   38.21235 
 H                     41.80735  -9.51226   39.66072 
 H                     41.51923  -11.54407   38.65725 
 H                     40.43855  -11.81852   36.89197 
 H                     43.32061  -11.83674   36.98848 
 H                     43.30099  -10.09472   36.57846 
 H                     43.86672  -10.61628   38.21573 
 N                     43.17921  -7.70267   38.47847 
 C                     43.95417  -6.65933   37.81407 
 C                     45.39405  -7.07701   37.5695 
 O                     46.25577  -6.85602   38.40605 
 C                     43.82901  -5.3032    38.55649 
 C                     44.55614  -4.18124   37.76517 
 C                     44.34006  -5.35891   40.01703 
 C                     44.1318  -2.7816    38.19143 
 H                     43.53268  -8.07467   39.37062 
 H                     43.52264  -6.48152   36.80838 
 H                     42.73748  -5.10072   38.57149 
 H                     44.33776  -4.26117   36.67818 
 H                     45.65633  -4.29358   37.8854 
 H                     43.97483  -6.25757   40.55032 
 H                     45.44896  -5.36314   40.06549 
 H                     43.99028  -4.47942   40.58927 
 H                     44.26421  -2.62362   39.27874 
 H                     44.74054  -2.03076   37.64512 
 H                     43.06744  -2.62898   37.9258 
 N                     45.7266  -7.63226   36.3793 
 C                     47.1064  -7.80613   35.93899 
 C                     47.28375  -7.2358    34.52873 
 O                     48.32869  -7.45025   33.93033 
 C                     47.49007  -9.29744   36.02774 
 C                     46.66941  -10.1802   35.08857 
 O                     47.31175  -9.75113   37.34588 
 H                     44.96754  -7.9122    35.73972 
 H                     47.81538  -7.26973   36.61048 
 H                     48.56212  -9.4191    35.74549 
 H                     47.99868  -9.29994   37.90473 
 H                     45.58625  -10.09984   35.31134 
 H                     46.8479  -9.89064   34.03256 
 H                     46.97675  -11.23766   35.21875 
 N                     46.29325  -6.48654   33.94709 
 C                     46.29    -5.98338   32.57936 
 C                     46.0463  -7.09506   31.57483 
 O                     46.1706  -8.26736   31.90058 
 C                     47.5561  -5.14656   32.20945 
 C                     47.8679  -4.09187   33.27249 
 O                     47.34629  -4.50679   30.9747 
 H                     45.46484  -6.23197   34.5007 
 H                     45.40196  -5.31698   32.50699 
 H                     48.4374  -5.82057   32.11391 
 H                     48.15627  -3.97853   30.75415 
 H                     48.14744  -4.57598   34.23 
 H                     48.73317  -3.47617   32.94495 
 H                     46.98869  -3.43412   33.42461 
 N                     45.73295  -6.75535   30.29315 
 C                     45.76839  -7.68458   29.18859 
 C                     44.55553  -7.7539    28.25871 
 O                     44.6526  -8.57014   27.35061 
 C                     47.00103  -7.28151   28.35685 
 C                     48.29545  -7.64318   29.09457 
 C                     49.51058  -7.20684   28.28351 
 C                     50.79467  -7.80603   28.8615 
 N                     51.93053  -7.50942   27.99211 
 H                     45.63506  -5.76756   30.06712 
 H                     45.90554  -8.72891   29.54904 
 H                     46.95657  -6.18906   28.13453 
 H                     47.02155  -7.82387   27.38839 
 H                     48.30342  -8.74979   29.208 
 H                     48.35037  -7.1878    30.10516 
 H                     49.57209  -6.09436   28.2716 
 H                     49.39604  -7.57075   27.24124 
 H                     50.68496  -8.91216   28.93326 
 H                     50.97479  -7.40485   29.88358 
 H                     52.0202  -6.4778    27.84869 
 H                     52.80429  -7.87747   28.43098 
 H                     51.79432  -7.98184   27.06778 
 N                     43.39276  -7.03384   28.30465 
 C                     42.91599  -5.9851    29.19604 
 C                     43.67744  -4.6847    29.07447 
 O                     43.91981  -4.01291   30.07105 
 C                     42.59202  -6.48387   30.61465 
 C                     41.42999  -5.67169   31.17637 
 C                     41.04477  -6.16507   32.50919 
 O                     39.81198  -6.63123   32.69729 
 O                     41.81371  -6.0763    33.45137 
 H                     42.72063  -7.26425   27.55359 
 H                     41.92999  -5.72449   28.74844 
 H                     43.46378  -6.4392    31.29431 
 H                     42.24579  -7.54005   30.5632 
 H                     40.54649  -5.78137   30.50448 
 H                     41.67686  -4.59374   31.25515 
 N                     44.06348  -4.26026   27.84136 
 C                     44.72408  -2.99814   27.60187 
 H                     45.72614  -3.18443   27.16337 
 H                     44.11437  -2.42226   26.87509 
 H                     44.83758  -2.3908    28.52376 
 H                     43.87619  -4.86261   27.0264 
 Ca                    39.16063  -6.46823   34.76042 
 O                     37.59732  -8.52186   33.60437 
 H                     37.25957  -8.04862   32.80366 
 H                     37.98249  -9.36282   33.25439 
 O                     40.51089  -9.2734    34.27788 
 H                     40.52069  -9.42747   33.3014 
 H                     41.03321  -10.03087   34.63302 
 O                     41.2333  -5.26195   36.08106 
 H                     40.65485  -4.47768   36.20794 
 H                     42.14548  -4.89058   36.08246 
 
 Stoichiometry    C54H95CaN15O27
 Framework group  C1[X(C54H95CaN15O27)]
 Deg. of freedom   570
 Full point group                 C1      NOp   1
 Largest Abelian subgroup         C1      NOp   1
 Largest concise Abelian subgroup C1      NOp   1
                         Standard orientation:                         
 ---------------------------------------------------------------------
 Center     Atomic      Atomic             Coordinates (Angstroms)
 Number     Number       Type             X           Y           Z
 ---------------------------------------------------------------------
      1          6           0       -2.484948    4.835848   -3.996338
      2          6           0       -2.483205    3.817418   -2.912638
      3          8           0       -1.443055    3.242212   -2.632478
      4          1           0       -1.451786    5.018228   -4.358311
      5          1           0       -3.119256    4.479270   -4.833504
      6          1           0       -2.897875    5.781996   -3.588693
      7          7           0       -3.624938    3.576436   -2.215803
      8          6           0       -3.695073    2.637794   -1.113096
      9          6           0       -4.937831    1.765609   -1.238433
     10          8           0       -5.623066    1.537445   -0.258524
     11          6           0       -3.595672    3.398111    0.230478
     12          6           0       -4.681147    4.403850    0.496108
     13          8           0       -4.770424    4.987398    1.705356
     14          8           0       -5.466154    4.717394   -0.376567
     15          1           0       -4.466002    4.120566   -2.458238
     16          1           0       -2.835287    1.944662   -1.141879
     17          1           0       -2.626769    3.937818    0.289131
     18          1           0       -3.615223    2.652096    1.027646
     19          7           0       -5.311653    1.302611   -2.469347
     20          6           0       -6.504374    0.481344   -2.677150
     21          6           0       -6.198867   -0.537250   -3.759548
     22          8           0       -6.010686   -0.117680   -4.890897
     23          6           0       -7.690518    1.362088   -3.143453
     24          6           0       -8.112093    2.327833   -2.032194
     25          6           0       -9.243710    3.280891   -2.436219
     26          6           0       -9.538220    4.323545   -1.336344
     27          7           0       -8.345968    5.093100   -0.979177
     28          1           0       -4.774239    1.599846   -3.292669
     29          1           0       -6.812889    0.003742   -1.734844
     30          1           0       -8.556761    0.719522   -3.413724
     31          1           0       -7.388229    1.942249   -4.045934
     32          1           0       -7.222486    2.935293   -1.798304
     33          1           0       -8.422620    1.749845   -1.134225
     34          1           0      -10.171780    2.704563   -2.645498
     35          1           0       -8.952722    3.822144   -3.362026
     36          1           0       -9.928502    3.823466   -0.421500
     37          1           0      -10.319388    5.018120   -1.710975
     38          1           0       -8.606407    5.925984   -0.406660
     39          1           0       -7.746479    4.491236   -0.377624
     40          1           0       -7.828386    5.408775   -1.833621
     41          7           0       -6.092416   -1.885525   -3.545840
     42          6           0       -6.089043   -2.609282   -2.274231
     43          6           0       -7.414068   -2.647032   -1.522835
     44          8           0       -8.307997   -1.888842   -1.870244
     45          6           0       -4.987470   -2.094788   -1.352518
     46          6           0       -3.662190   -1.939702   -1.978027
     47          8           0       -3.134741   -2.872370   -2.565785
     48          8           0       -2.933105   -0.885837   -1.602305
     49          1           0       -5.887178   -2.458286   -4.381448
     50          1           0       -5.860085   -3.661562   -2.552524
     51          1           0       -4.843810   -2.796070   -0.545060
     52          1           0       -5.240633   -1.142687   -0.860030
     53          7           0       -7.661446   -3.524357   -0.491967
     54          6           0       -6.767084   -4.593400   -0.029274
     55          6           0       -6.682779   -4.596679    1.491358
     56          8           0       -7.730665   -4.764345    2.098489
     57          1           0       -8.593291   -3.479634   -0.050416
     58          1           0       -5.806372   -4.618195   -0.549220
     59          1           0       -7.236542   -5.560874   -0.304221
     60          7           0       -5.539474   -4.413169    2.227423
     61          6           0       -4.197725   -4.123684    1.719559
     62          6           0       -3.895408   -2.623129    1.785571
     63          8           0       -2.883799   -2.205758    1.239170
     64          6           0       -3.150613   -4.958576    2.491100
     65          6           0       -3.254137   -4.767661    3.983888
     66          8           0       -3.602260   -5.697280    4.693242
     67          8           0       -3.019709   -3.567111    4.538791
     68          1           0       -5.662254   -4.383993    3.251331
     69          1           0       -4.103291   -4.427793    0.662785
     70          1           0       -2.118202   -4.714359    2.155254
     71          1           0       -3.332533   -6.030617    2.261223
     72          7           0       -4.763744   -1.746807    2.380254
     73          6           0       -4.635351   -0.294783    2.313783
     74          6           0       -3.419811    0.348068    2.972431
     75          8           0       -3.353972    1.565084    3.003321
     76          1           0       -5.612686   -2.108695    2.834395
     77          1           0       -5.543211    0.141910    2.784386
     78          1           0       -4.630140   -0.005227    1.249191
     79          7           0       -2.419758   -0.383550    3.517960
     80          6           0       -1.179700    0.206823    4.033097
     81          6           0       -0.342133    0.842582    2.933233
     82          8           0       -0.098586    0.203275    1.920025
     83          6           0       -0.355499   -0.872278    4.781524
     84          6           0        1.108001   -0.483049    5.020232
     85          8           0       -0.364627   -2.086765    4.082299
     86          1           0       -2.530475   -1.398077    3.550633
     87          1           0       -1.413574    0.993184    4.783845
     88          1           0       -0.865770   -0.994737    5.766849
     89          1           0       -0.666073   -2.787692    4.715737
     90          1           0        1.590670   -1.255413    5.651229
     91          1           0        1.656504   -0.458320    4.050153
     92          1           0        1.192478    0.509355    5.506523
     93          7           0        0.217842    2.080093    3.137200
     94          6           0        1.135448    2.708968    2.192179
     95          6           0        2.473237    3.049443    2.826152
     96          8           0        2.650681    4.134325    3.357903
     97          6           0        0.472284    3.916280    1.479050
     98          6           0        1.419157    4.491237    0.389759
     99          6           0        0.025781    5.030989    2.456554
    100          6           0        0.698494    5.379167   -0.616709
    101          1           0        0.009336    2.577459    4.013790
    102          1           0        1.366183    1.984890    1.384887
    103          1           0       -0.430827    3.485725    0.997726
    104          1           0        1.892560    3.671505   -0.192955
    105          1           0        2.241146    5.062838    0.874630
    106          1           0       -0.499107    4.621424    3.340935
    107          1           0        0.887147    5.629098    2.820340
    108          1           0       -0.673320    5.730585    1.961447
    109          1           0        0.148755    6.202101   -0.121432
    110          1           0        1.440011    5.816715   -1.317769
    111          1           0       -0.012684    4.762314   -1.200174
    112          7           0        3.493223    2.162944    2.730156
    113          6           0        4.875850    2.501590    3.048926
    114          6           0        5.797572    2.083886    1.899355
    115          8           0        7.008567    2.129608    2.064800
    116          6           0        5.268510    1.849280    4.390341
    117          6           0        5.245439    0.322313    4.339096
    118          8           0        4.389619    2.281340    5.398310
    119          1           0        3.287362    1.214604    2.381053
    120          1           0        4.999113    3.598888    3.197313
    121          1           0        6.306212    2.156808    4.659337
    122          1           0        4.569483    3.247373    5.547268
    123          1           0        4.237713   -0.052016    4.067643
    124          1           0        5.984936   -0.050259    3.600722
    125          1           0        5.512503   -0.081291    5.336797
    126          7           0        5.277160    1.675139    0.698155
    127          6           0        6.035096    1.149460   -0.430145
    128          6           0        6.534487   -0.258601   -0.161306
    129          8           0        6.549914   -0.707575    0.976251
    130          6           0        7.191976    2.084693   -0.906673
    131          6           0        6.717944    3.528763   -1.078717
    132          8           0        7.693191    1.615977   -2.134282
    133          1           0        4.262596    1.738141    0.542446
    134          1           0        5.304076    1.051935   -1.263235
    135          1           0        8.017343    2.072370   -0.159194
    136          1           0        8.424455    2.219746   -2.424946
    137          1           0        6.421890    3.959712   -0.100982
    138          1           0        7.548630    4.149164   -1.478872
    139          1           0        5.862372    3.566600   -1.782529
    140          7           0        7.007939   -0.990945   -1.208116
    141          6           0        7.773477   -2.205251   -1.052580
    142          6           0        7.355446   -3.435688   -1.859913
    143          8           0        8.044132   -4.430700   -1.670233
    144          6           0        9.215871   -1.830016   -1.442909
    145          6           0        9.852348   -0.935209   -0.372967
    146          6           0       11.265435   -0.536299   -0.783833
    147          6           0       12.009710    0.112438    0.385433
    148          7           0       13.406473    0.350477    0.029929
    149          1           0        6.971852   -0.579746   -2.138714
    150          1           0        7.766966   -2.549021    0.006259
    151          1           0        9.210825   -1.325615   -2.438100
    152          1           0        9.853552   -2.735072   -1.524927
    153          1           0        9.893661   -1.532985    0.564302
    154          1           0        9.258337   -0.018464   -0.176984
    155          1           0       11.219431    0.162357   -1.650608
    156          1           0       11.821890   -1.447527   -1.086979
    157          1           0       11.981156   -0.570930    1.264582
    158          1           0       11.514344    1.067802    0.668147
    159          1           0       13.468080    0.934935   -0.834630
    160          1           0       13.882379    0.843573    0.818532
    161          1           0       13.885955   -0.566196   -0.131093
    162          7           0        6.329306   -3.570531   -2.755169
    163          6           0        5.324486   -2.640366   -3.252032
    164          6           0        5.887374   -1.533680   -4.114603
    165          8           0        5.432086   -0.397704   -4.040523
    166          6           0        4.273633   -2.249773   -2.198786
    167          6           0        2.935342   -2.015814   -2.891403
    168          6           0        1.885467   -1.705504   -1.906670
    169          8           0        0.828452   -2.509136   -1.809960
    170          8           0        1.938338   -0.684532   -1.242086
    171          1           0        6.254386   -4.511633   -3.176658
    172          1           0        4.773577   -3.261690   -3.994270
    173          1           0        4.567909   -1.361657   -1.608404
    174          1           0        4.123430   -3.099398   -1.496208
    175          1           0        2.633047   -2.944666   -3.429816
    176          1           0        2.987713   -1.187622   -3.626579
    177          7           0        6.885430   -1.824916   -4.991416
    178          6           0        7.440502   -0.864852   -5.917088
    179          1           0        8.520179   -0.727247   -5.701514
    180          1           0        7.327135   -1.270452   -6.943845
    181          1           0        6.931825    0.120406   -5.870822
    182          1           0        7.271373   -2.780359   -5.006836
    183         20           0       -0.926136   -1.495543   -1.034473
    184          8           0       -1.309277   -4.246136   -0.500402
    185          1           0       -1.151418   -4.618631   -1.403450
    186          1           0       -0.716446   -4.769445    0.093529
    187          8           0        0.699844   -2.792331    1.331865
    188          1           0        1.297925   -3.472459    0.935542
    189          1           0        0.979053   -2.767038    2.277437
    190          8           0       -0.153504    1.103711   -0.657537
    191          1           0       -0.764558    1.357875   -1.384033
    192          1           0        0.543250    1.799569   -0.674981
 ---------------------------------------------------------------------
 Rotational constants (GHZ):           0.0236316           0.0094677           0.0091604
 Standard basis: SVP (5D, 7F)
 There are  1929 symmetry adapted cartesian basis functions of A   symmetry.
 There are  1833 symmetry adapted basis functions of A   symmetry.
  1833 basis functions,  3106 primitive gaussians,  1929 cartesian basis functions
   380 alpha electrons      380 beta electrons
       nuclear repulsion energy     22733.5908148808 Hartrees.
 NAtoms=  192 NActive=  192 NUniq=  192 SFac= 1.00D+00 NAtFMM=   60 NAOKFM=T Big=T
 Integral buffers will be    131072 words long.
 Raffenetti 2 integral format.
 Two-electron integral symmetry is turned on.
 One-electron integrals computed using PRISM.
 NBasis=  1833 RedAO= T EigKep=  7.50D-04  NBF=  1833
 NBsUse=  1833 1.00D-06 EigRej= -1.00D+00 NBFU=  1833
 ExpMin= 1.98D-02 ExpMax= 3.51D+04 ExpMxC= 5.28D+03 IAcc=3 IRadAn=         5 AccDes= 0.00D+00
 Harris functional with IExCor=  402 and IRadAn=       5 diagonalized for initial guess.
 HarFok:  IExCor=  402 AccDes= 0.00D+00 IRadAn=         5 IDoV= 1 UseB2=F ITyADJ=14
 ICtDFT=  3500011 ScaDFX=  1.000000  1.000000  1.000000  1.000000
 FoFCou: FMM=F IPFlag=           0 FMFlag=      100000 FMFlg1=        2001
         NFxFlg=           0 DoJE=T BraDBF=F KetDBF=T FulRan=T
         wScrn=  0.000000 ICntrl=       500 IOpCl=  0 I1Cent=   200000004 NGrid=           0
         NMat0=    1 NMatS0=      1 NMatT0=    0 NMatD0=    1 NMtDS0=    0 NMtDT0=    0
 Petite list used in FoFCou.
 Requested convergence on RMS density matrix=1.00D-08 within  32 cycles.
 Requested convergence on MAX density matrix=1.00D-06.
 Requested convergence on             energy=1.00D-06.
 No special actions if energy rises.
 EnCoef did     5 forward-backward iterations
 EnCoef did   100 forward-backward iterations
 EnCoef did     3 forward-backward iterations
 EnCoef did     1 forward-backward iterations
 EnCoef did    17 forward-backward iterations
 EnCoef did    43 forward-backward iterations
 EnCoef did     1 forward-backward iterations
 EnCoef did     1 forward-backward iterations
 EnCoef did     1 forward-backward iterations
 EnCoef did     1 forward-backward iterations
 EnCoef did     1 forward-backward iterations
 EnCoef did    45 forward-backward iterations
 Rare condition: small coef for last iteration: -0.444D-15
 EnCoef did   100 forward-backward iterations
 EnCoef did    12 forward-backward iterations
 Rare condition: small coef for last iteration: -0.333D-14
 Restarting incremental Fock formation.
 EnCoef did   100 forward-backward iterations
 EnCoef did    12 forward-backward iterations
 Rare condition: small coef for last iteration: -0.222D-14
 EnCoef did   100 forward-backward iterations
 EnCoef did    12 forward-backward iterations
 Rare condition: small coef for last iteration: -0.400D-14
 EnCoef did   100 forward-backward iterations
 EnCoef did    12 forward-backward iterations
 Rare condition: small coef for last iteration: -0.311D-14
 EnCoef did   100 forward-backward iterations
 EnCoef did    12 forward-backward iterations
 Rare condition: small coef for last iteration: -0.222D-14
 EnCoef did   100 forward-backward iterations
 EnCoef did    12 forward-backward iterations
 Rare condition: small coef for last iteration: -0.888D-15
 EnCoef did   100 forward-backward iterations
 EnCoef did    12 forward-backward iterations
 Rare condition: small coef for last iteration: -0.222D-15
 >>>>>>>>>> Convergence criterion not met.
 SCF Done:  E(RB3LYP) =  -5640.10559392     A.U. after   33 cycles
            NFock= 32  Conv=0.29D-04     -V/T= 2.0090
 Gradient too large for Newton-Raphson -- use scaled steepest descent instead.
 Alpha Gap=    -1.245 HL deriv= 8.28D-05 Rot set to   2.89D-01
     Minimum is close to point  4 DX=  1.08D-02 DF= -1.62D-04 DXR=  1.77D-02 DFR=  3.32D-04 which will be used.
 Gradient too large for Newton-Raphson -- use scaled steepest descent instead.
     Accept linear search using points  2 and  3.
 Gradient too large for Newton-Raphson -- use scaled steepest descent instead.
     Accept linear search using points  2 and  3.
 Gradient too large for Newton-Raphson -- use scaled steepest descent instead.
     Minimum is close to point  3 DX= -1.18D-02 DF= -9.10D-05 DXR=  4.09D-02 DFR=  1.67D-03 which will be used.
 Gradient too large for Newton-Raphson -- use scaled steepest descent instead.
     Accept linear search using points  1 and  2.
 Gradient too large for Newton-Raphson -- use scaled steepest descent instead.
     Minimum is close to point  3 DX=  3.76D-02 DF= -4.01D-04 DXR=  8.60D-02 DFR=  7.56D-03 which will be used.
 Gradient too large for Newton-Raphson -- use scaled steepest descent instead.
 Restarting incremental Fock formation.
     Minimum is close to point  3 DX=  1.74D-02 DF= -5.78D-05 DXR=  3.37D-02 DFR=  9.59D-04 which will be used.
 Gradient too large for Newton-Raphson -- use scaled steepest descent instead.
     Accept linear search using points  1 and  2.
 Gradient too large for Newton-Raphson -- use scaled steepest descent instead.
     Accept linear search using points  1 and  2.
 Gradient too large for Newton-Raphson -- use scaled steepest descent instead.
 Gradient too large for Newton-Raphson -- use scaled steepest descent instead.
     Accept linear search using points  1 and  2.
 Gradient too large for Newton-Raphson -- use scaled steepest descent instead.
     Accept linear search using points  6 and  7.
 Gradient too large for Newton-Raphson -- use scaled steepest descent instead.
 Gradient too large for Newton-Raphson -- use scaled steepest descent instead.
 Restarting incremental Fock formation.
     Minimum is close to point  3 DX= -3.45D-02 DF= -1.11D-04 DXR=  9.42D-02 DFR=  8.96D-03 which will be used.
 Gradient too large for Newton-Raphson -- use scaled steepest descent instead.
     Minimum is close to point  2 DX=  4.26D-02 DF= -2.56D-05 DXR=  9.63D-02 DFR=  9.35D-03 which will be used.
 Gradient too large for Newton-Raphson -- use scaled steepest descent instead.
 Gradient too large for Newton-Raphson -- use scaled steepest descent instead.
     Accept linear search using points  1 and  2.
 Gradient too large for Newton-Raphson -- use scaled steepest descent instead.
 LinEq1:  Iter=  0 NonCon=     1 RMS=1.26D-04 Max=9.22D-02 NDo=     1
 AX will form     1 AO Fock derivatives at one time.
 LinEq1:  Iter=  1 NonCon=     1 RMS=9.54D-04 Max=6.90D-01 NDo=     1
 LinEq1:  Iter=  2 NonCon=     1 RMS=1.65D-03 Max=4.67D-01 NDo=     1
 LinEq1:  Iter=  3 NonCon=     1 RMS=7.31D-03 Max=4.71D+00 NDo=     1
 LinEq1:  Iter=  4 NonCon=     1 RMS=8.77D-04 Max=7.71D-02 NDo=     1
 LinEq1:  Iter=  5 NonCon=     1 RMS=7.16D-04 Max=1.80D-01 NDo=     1
 LinEq1:  Iter=  6 NonCon=     1 RMS=4.00D-04 Max=4.17D-02 NDo=     1
 LinEq1:  Iter=  7 NonCon=     1 RMS=3.34D-04 Max=7.05D-02 NDo=     1
 LinEq1:  Iter=  8 NonCon=     1 RMS=1.59D-04 Max=3.25D-02 NDo=     1
 LinEq1:  Iter=  9 NonCon=     1 RMS=1.05D-04 Max=2.17D-02 NDo=     1
 LinEq1:  Iter= 10 NonCon=     1 RMS=7.33D-05 Max=7.23D-03 NDo=     1
 LinEq1:  Iter= 11 NonCon=     1 RMS=5.27D-05 Max=5.10D-03 NDo=     1
 LinEq1:  Iter= 12 NonCon=     1 RMS=2.91D-05 Max=3.00D-03 NDo=     1
 LinEq1:  Iter= 13 NonCon=     1 RMS=1.75D-05 Max=2.65D-03 NDo=     1
 LinEq1:  Iter= 14 NonCon=     1 RMS=1.16D-05 Max=1.38D-03 NDo=     1
 LinEq1:  Iter= 15 NonCon=     1 RMS=1.02D-05 Max=1.86D-03 NDo=     1
 LinEq1:  Iter= 16 NonCon=     1 RMS=5.34D-06 Max=7.02D-04 NDo=     1
 LinEq1:  Iter= 17 NonCon=     1 RMS=3.09D-06 Max=3.25D-04 NDo=     1
 LinEq1:  Iter= 18 NonCon=     1 RMS=2.37D-06 Max=3.43D-04 NDo=     1
 LinEq1:  Iter= 19 NonCon=     1 RMS=1.63D-06 Max=1.99D-04 NDo=     1
 LinEq1:  Iter= 20 NonCon=     1 RMS=9.89D-07 Max=1.30D-04 NDo=     1
 LinEq1:  Iter= 21 NonCon=     1 RMS=7.06D-07 Max=1.04D-04 NDo=     1
 LinEq1:  Iter= 22 NonCon=     1 RMS=5.02D-07 Max=6.81D-05 NDo=     1
 LinEq1:  Iter= 23 NonCon=     1 RMS=3.28D-07 Max=6.78D-05 NDo=     1
 LinEq1:  Iter= 24 NonCon=     1 RMS=1.82D-07 Max=3.17D-05 NDo=     1
 LinEq1:  Iter= 25 NonCon=     1 RMS=1.22D-07 Max=2.19D-05 NDo=     1
 LinEq1:  Iter= 26 NonCon=     1 RMS=9.41D-08 Max=1.86D-05 NDo=     1
 LinEq1:  Iter= 27 NonCon=     1 RMS=5.77D-08 Max=1.12D-05 NDo=     1
 LinEq1:  Iter= 28 NonCon=     1 RMS=3.69D-08 Max=7.55D-06 NDo=     1
 LinEq1:  Iter= 29 NonCon=     1 RMS=2.24D-08 Max=4.18D-06 NDo=     1
 LinEq1:  Iter= 30 NonCon=     1 RMS=1.73D-08 Max=3.11D-06 NDo=     1
 LinEq1:  Iter= 31 NonCon=     1 RMS=1.12D-08 Max=2.28D-06 NDo=     1
 LinEq1:  Iter= 32 NonCon=     1 RMS=6.35D-09 Max=1.30D-06 NDo=     1
 LinEq1:  Iter= 33 NonCon=     0 RMS=3.35D-09 Max=7.02D-07 NDo=     1
 Linear equations converged to 7.027D-08 7.027D-07 after    33 iterations.
     Minimum is close to point  2 DX=  5.22D-02 DF= -1.31D-07 DXR=  4.96D-02 DFR=  2.46D-03 which will be used.
 LinEq1:  Iter=  0 NonCon=     1 RMS=2.33D-05 Max=1.61D-02 NDo=     1
 LinEq1:  Iter=  1 NonCon=     1 RMS=7.64D-05 Max=5.23D-02 NDo=     1
 LinEq1:  Iter=  2 NonCon=     1 RMS=1.31D-04 Max=5.88D-02 NDo=     1
 LinEq1:  Iter=  3 NonCon=     1 RMS=1.33D-04 Max=5.47D-02 NDo=     1
 LinEq1:  Iter=  4 NonCon=     1 RMS=5.67D-05 Max=1.06D-02 NDo=     1
 LinEq1:  Iter=  5 NonCon=     1 RMS=6.76D-05 Max=1.80D-02 NDo=     1
 LinEq1:  Iter=  6 NonCon=     1 RMS=5.06D-05 Max=1.39D-02 NDo=     1
 LinEq1:  Iter=  7 NonCon=     1 RMS=3.66D-05 Max=3.75D-03 NDo=     1
 LinEq1:  Iter=  8 NonCon=     1 RMS=2.05D-05 Max=2.91D-03 NDo=     1
 LinEq1:  Iter=  9 NonCon=     1 RMS=1.64D-05 Max=2.75D-03 NDo=     1
 LinEq1:  Iter= 10 NonCon=     1 RMS=9.40D-06 Max=1.78D-03 NDo=     1
 LinEq1:  Iter= 11 NonCon=     1 RMS=5.79D-06 Max=1.16D-03 NDo=     1
 LinEq1:  Iter= 12 NonCon=     1 RMS=3.81D-06 Max=7.68D-04 NDo=     1
 LinEq1:  Iter= 13 NonCon=     1 RMS=3.01D-06 Max=6.86D-04 NDo=     1
 LinEq1:  Iter= 14 NonCon=     1 RMS=1.97D-06 Max=4.51D-04 NDo=     1
 LinEq1:  Iter= 15 NonCon=     1 RMS=1.27D-06 Max=2.91D-04 NDo=     1
 LinEq1:  Iter= 16 NonCon=     1 RMS=8.62D-07 Max=1.57D-04 NDo=     1
 LinEq1:  Iter= 17 NonCon=     1 RMS=6.59D-07 Max=1.27D-04 NDo=     1
 LinEq1:  Iter= 18 NonCon=     1 RMS=3.48D-07 Max=6.63D-05 NDo=     1
 LinEq1:  Iter= 19 NonCon=     1 RMS=2.20D-07 Max=4.21D-05 NDo=     1
 LinEq1:  Iter= 20 NonCon=     1 RMS=1.70D-07 Max=2.71D-05 NDo=     1
 LinEq1:  Iter= 21 NonCon=     1 RMS=1.30D-07 Max=1.88D-05 NDo=     1
 LinEq1:  Iter= 22 NonCon=     1 RMS=7.46D-08 Max=7.08D-06 NDo=     1
 LinEq1:  Iter= 23 NonCon=     1 RMS=4.26D-08 Max=3.50D-06 NDo=     1
 LinEq1:  Iter= 24 NonCon=     1 RMS=2.99D-08 Max=2.22D-06 NDo=     1
 LinEq1:  Iter= 25 NonCon=     1 RMS=2.21D-08 Max=2.28D-06 NDo=     1
 LinEq1:  Iter= 26 NonCon=     1 RMS=1.20D-08 Max=1.71D-06 NDo=     1
 LinEq1:  Iter= 27 NonCon=     1 RMS=6.68D-09 Max=8.27D-07 NDo=     1
 LinEq1:  Iter= 28 NonCon=     1 RMS=4.68D-09 Max=5.52D-07 NDo=     1
 LinEq1:  Iter= 29 NonCon=     1 RMS=3.47D-09 Max=4.30D-07 NDo=     1
 LinEq1:  Iter= 30 NonCon=     1 RMS=2.18D-09 Max=2.74D-07 NDo=     1
 LinEq1:  Iter= 31 NonCon=     1 RMS=1.16D-09 Max=1.58D-07 NDo=     1
 LinEq1:  Iter= 32 NonCon=     1 RMS=7.37D-10 Max=8.97D-08 NDo=     1
 LinEq1:  Iter= 33 NonCon=     1 RMS=5.65D-10 Max=8.24D-08 NDo=     1
 LinEq1:  Iter= 34 NonCon=     1 RMS=3.56D-10 Max=7.26D-08 NDo=     1
 LinEq1:  Iter= 35 NonCon=     1 RMS=1.90D-10 Max=4.93D-08 NDo=     1
 LinEq1:  Iter= 36 NonCon=     1 RMS=1.35D-10 Max=3.39D-08 NDo=     1
 LinEq1:  Iter= 37 NonCon=     0 RMS=9.22D-11 Max=2.12D-08 NDo=     1
 Linear equations converged to 2.583D-09 2.583D-08 after    37 iterations.
 SCF Done:  E(RB3LYP) =  -5641.30714850     a.u. after   21 cycles
            Convg  =    0.1827D-05                   126 Fock formations.
              S**2 =  0.0000                  -V/T =  2.0087
 SCF density gives NOpUse=  1 NOpAll=  1.
 Hyperfine terms turned off by default for NAtoms > 100.

 **********************************************************************

            Population analysis using the SCF Density.

 **********************************************************************

 Orbital symmetries:
 BldTbl:  Degeneracy threshold= 1.00D-02
       Occupied  (A) (A) (A) (A) (A) (A) (A) (A) (A) (A) (A) (A)
                 (A) (A) (A) (A) (A) (A) (A) (A) (A) (A) (A) (A)
                 (A) (A) (A) (A) (A) (A) (A) (A) (A) (A) (A) (A)
                 (A) (A) (A) (A) (A) (A) (A) (A) (A) (A) (A) (A)
                 (A) (A) (A) (A) (A) (A) (A) (A) (A) (A) (A) (A)
                 (A) (A) (A) (A) (A) (A) (A) (A) (A) (A) (A) (A)
                 (A) (A) (A) (A) (A) (A) (A) (A) (A) (A) (A) (A)
                 (A) (A) (A) (A) (A) (A) (A) (A) (A) (A) (A) (A)
                 (A) (A) (A) (A) (A) (A) (A) (A) (A) (A) (A) (A)
                 (A) (A) (A) (A) (A) (A) (A) (A) (A) (A) (A) (A)
                 (A) (A) (A) (A) (A) (A) (A) (A) (A) (A) (A) (A)
                 (A) (A) (A) (A) (A) (A) (A) (A) (A) (A) (A) (A)
                 (A) (A) (A) (A) (A) (A) (A) (A) (A) (A) (A) (A)
                 (A) (A) (A) (A) (A) (A) (A) (A) (A) (A) (A) (A)
                 (A) (A) (A) (A) (A) (A) (A) (A) (A) (A) (A) (A)
                 (A) (A) (A) (A) (A) (A) (A) (A) (A) (A) (A) (A)
                 (A) (A) (A) (A) (A) (A) (A) (A) (A) (A) (A) (A)
                 (A) (A) (A) (A) (A) (A) (A) (A) (A) (A) (A) (A)
                 (A) (A) (A) (A) (A) (A) (A) (A) (A) (A) (A) (A)
                 (A) (A) (A) (A) (A) (A) (A) (A) (A) (A) (A) (A)
                 (A) (A) (A) (A) (A) (A) (A) (A) (A) (A) (A) (A)
                 (A) (A) (A) (A) (A) (A) (A) (A) (A) (A) (A) (A)
                 (A) (A) (A) (A) (A) (A) (A) (A) (A) (A) (A) (A)
                 (A) (A) (A) (A) (A) (A) (A) (A) (A) (A) (A) (A)
                 (A) (A) (A) (A) (A) (A) (A) (A) (A) (A) (A) (A)
                 (A) (A) (A) (A) (A) (A) (A) (A) (A) (A) (A) (A)
                 (A) (A) (A) (A) (A) (A) (A) (A) (A) (A) (A) (A)
                 (A) (A) (A) (A) (A) (A) (A) (A) (A) (A) (A) (A)
                 (A) (A) (A) (A) (A) (A) (A) (A) (A) (A) (A) (A)
                 (A) (A) (A) (A) (A) (A) (A) (A) (A) (A) (A) (A)
                 (A) (A) (A) (A) (A) (A) (A) (A) (A) (A) (A) (A)
                 (A) (A) (A) (A) (A) (A) (A) (A)
       Virtual   (A) (A) (A) (A) (A) (A) (A) (A) (A) (A) (A) (A)
                 (A) (A) (A) (A) (A) (A) (A) (A) (A) (A) (A) (A)
                 (A) (A) (A) (A) (A) (A) (A) (A) (A) (A) (A) (A)
                 (A) (A) (A) (A) (A) (A) (A) (A) (A) (A) (A) (A)
                 (A) (A) (A) (A) (A) (A) (A) (A) (A) (A) (A) (A)
                 (A) (A) (A) (A) (A) (A) (A) (A) (A) (A) (A) (A)
                 (A) (A) (A) (A) (A) (A) (A) (A) (A) (A) (A) (A)
                 (A) (A) (A) (A) (A) (A) (A) (A) (A) (A) (A) (A)
                 (A) (A) (A) (A) (A) (A) (A) (A) (A) (A) (A) (A)
                 (A) (A) (A) (A) (A) (A) (A) (A) (A) (A) (A) (A)
                 (A) (A) (A) (A) (A) (A) (A) (A) (A) (A) (A) (A)
                 (A) (A) (A) (A) (A) (A) (A) (A) (A) (A) (A) (A)
                 (A) (A) (A) (A) (A) (A) (A) (A) (A) (A) (A) (A)
                 (A) (A) (A) (A) (A) (A) (A) (A) (A) (A) (A) (A)
                 (A) (A) (A) (A) (A) (A) (A) (A) (A) (A) (A) (A)
                 (A) (A) (A) (A) (A) (A) (A) (A) (A) (A) (A) (A)
                 (A) (A) (A) (A) (A) (A) (A) (A) (A) (A) (A) (A)
                 (A) (A) (A) (A) (A) (A) (A) (A) (A) (A) (A) (A)
                 (A) (A) (A) (A) (A) (A) (A) (A) (A) (A) (A) (A)
                 (A) (A) (A) (A) (A) (A) (A) (A) (A) (A) (A) (A)
                 (A) (A) (A) (A) (A) (A) (A) (A) (A) (A) (A) (A)
                 (A) (A) (A) (A) (A) (A) (A) (A) (A) (A) (A) (A)
                 (A) (A) (A) (A) (A) (A) (A) (A) (A) (A) (A) (A)
                 (A) (A) (A) (A) (A) (A) (A) (A) (A) (A) (A) (A)
                 (A) (A) (A) (A) (A) (A) (A) (A) (A) (A) (A) (A)
                 (A) (A) (A) (A) (A) (A) (A) (A) (A) (A) (A) (A)
                 (A) (A) (A) (A) (A) (A) (A) (A) (A) (A) (A) (A)
                 (A) (A) (A) (A) (A) (A) (A) (A) (A) (A) (A) (A)
                 (A) (A) (A) (A) (A) (A) (A) (A) (A) (A) (A) (A)
                 (A) (A) (A) (A) (A) (A) (A) (A) (A) (A) (A) (A)
                 (A) (A) (A) (A) (A) (A) (A) (A) (A) (A) (A) (A)
                 (A) (A) (A) (A) (A) (A) (A) (A) (A) (A) (A) (A)
                 (A) (A) (A) (A) (A) (A) (A) (A) (A) (A) (A) (A)
                 (A) (A) (A) (A) (A) (A) (A) (A) (A) (A) (A) (A)
                 (A) (A) (A) (A) (A) (A) (A) (A) (A) (A) (A) (A)
                 (A) (A) (A) (A) (A) (A) (A) (A) (A) (A) (A) (A)
                 (A) (A) (A) (A) (A) (A) (A) (A) (A) (A) (A) (A)
                 (A) (A) (A) (A) (A) (A) (A) (A) (A) (A) (A) (A)
                 (A) (A) (A) (A) (A) (A) (A) (A) (A) (A) (A) (A)
                 (A) (A) (A) (A) (A) (A) (A) (A) (A) (A) (A) (A)
                 (A) (A) (A) (A) (A) (A) (A) (A) (A) (A) (A) (A)
                 (A) (A) (A) (A) (A) (A) (A) (A) (A) (A) (A) (A)
                 (A) (A) (A) (A) (A) (A) (A) (A) (A) (A) (A) (A)
                 (A) (A) (A) (A) (A) (A) (A) (A) (A) (A) (A) (A)
                 (A) (A) (A) (A) (A) (A) (A) (A) (A) (A) (A) (A)
                 (A) (A) (A) (A) (A) (A) (A) (A) (A) (A) (A) (A)
                 (A) (A) (A) (A) (A) (A) (A) (A) (A) (A) (A) (A)
                 (A) (A) (A) (A) (A) (A) (A) (A) (A) (A) (A) (A)
                 (A) (A) (A) (A) (A) (A) (A) (A) (A) (A) (A) (A)
                 (A) (A) (A) (A) (A) (A) (A) (A) (A) (A) (A) (A)
                 (A) (A) (A) (A) (A) (A) (A) (A) (A) (A) (A) (A)
                 (A) (A) (A) (A) (A) (A) (A) (A) (A) (A) (A) (A)
                 (A) (A) (A) (A) (A) (A) (A) (A) (A) (A) (A) (A)
                 (A) (A) (A) (A) (A) (A) (A) (A) (A) (A) (A) (A)
                 (A) (A) (A) (A) (A) (A) (A) (A) (A) (A) (A) (A)
                 (A) (A) (A) (A) (A) (A) (A) (A) (A) (A) (A) (A)
                 (A) (A) (A) (A) (A) (A) (A) (A) (A) (A) (A) (A)
                 (A) (A) (A) (A) (A) (A) (A) (A) (A) (A) (A) (A)
                 (A) (A) (A) (A) (A) (A) (A) (A) (A) (A) (A) (A)
                 (A) (A) (A) (A) (A) (A) (A) (A) (A) (A) (A) (A)
                 (A) (A) (A) (A) (A) (A) (A) (A) (A) (A) (A) (A)
                 (A) (A) (A) (A) (A) (A) (A) (A) (A) (A) (A) (A)
                 (A) (A) (A) (A) (A) (A) (A) (A) (A) (A) (A) (A)
                 (A) (A) (A) (A) (A) (A) (A) (A) (A) (A) (A) (A)
                 (A) (A) (A) (A) (A) (A) (A) (A) (A) (A) (A) (A)
                 (A) (A) (A) (A) (A) (A) (A) (A) (A) (A) (A) (A)
                 (A) (A) (A) (A) (A) (A) (A) (A) (A) (A) (A) (A)
                 (A) (A) (A) (A) (A) (A) (A) (A) (A) (A) (A) (A)
                 (A) (A) (A) (A) (A) (A) (A) (A) (A) (A) (A) (A)
                 (A) (A) (A) (A) (A) (A) (A) (A) (A) (A) (A) (A)
                 (A) (A) (A) (A) (A) (A) (A) (A) (A) (A) (A) (A)
                 (A) (A) (A) (A) (A) (A) (A) (A) (A) (A) (A) (A)
                 (A) (A) (A) (A) (A) (A) (A) (A) (A) (A) (A) (A)
                 (A) (A) (A) (A) (A) (A) (A) (A) (A) (A) (A) (A)
                 (A) (A) (A) (A) (A) (A) (A) (A) (A) (A) (A) (A)
                 (A) (A) (A) (A) (A) (A) (A) (A) (A) (A) (A) (A)
                 (A) (A) (A) (A) (A) (A) (A) (A) (A) (A) (A) (A)
                 (A) (A) (A) (A) (A) (A) (A) (A) (A) (A) (A) (A)
                 (A) (A) (A) (A) (A) (A) (A) (A) (A) (A) (A) (A)
                 (A) (A) (A) (A) (A) (A) (A) (A) (A) (A) (A) (A)
                 (A) (A) (A) (A) (A) (A) (A) (A) (A) (A) (A) (A)
                 (A) (A) (A) (A) (A) (A) (A) (A) (A) (A) (A) (A)
                 (A) (A) (A) (A) (A) (A) (A) (A) (A) (A) (A) (A)
                 (A) (A) (A) (A) (A) (A) (A) (A) (A) (A) (A) (A)
                 (A) (A) (A) (A) (A) (A) (A) (A) (A) (A) (A) (A)
                 (A) (A) (A) (A) (A) (A) (A) (A) (A) (A) (A) (A)
                 (A) (A) (A) (A) (A) (A) (A) (A) (A) (A) (A) (A)
                 (A) (A) (A) (A) (A) (A) (A) (A) (A) (A) (A) (A)
                 (A) (A) (A) (A) (A) (A) (A) (A) (A) (A) (A) (A)
                 (A) (A) (A) (A) (A) (A) (A) (A) (A) (A) (A) (A)
                 (A) (A) (A) (A) (A) (A) (A) (A) (A) (A) (A) (A)
                 (A) (A) (A) (A) (A) (A) (A) (A) (A) (A) (A) (A)
                 (A) (A) (A) (A) (A) (A) (A) (A) (A) (A) (A) (A)
                 (A) (A) (A) (A) (A) (A) (A) (A) (A) (A) (A) (A)
                 (A) (A) (A) (A) (A) (A) (A) (A) (A) (A) (A) (A)
                 (A) (A) (A) (A) (A) (A) (A) (A) (A) (A) (A) (A)
                 (A) (A) (A) (A) (A) (A) (A) (A) (A) (A) (A) (A)
                 (A) (A) (A) (A) (A) (A) (A) (A) (A) (A) (A) (A)
                 (A) (A) (A) (A) (A) (A) (A) (A) (A) (A) (A) (A)
                 (A) (A) (A) (A) (A) (A) (A) (A) (A) (A) (A) (A)
                 (A) (A) (A) (A) (A) (A) (A) (A) (A) (A) (A) (A)
                 (A) (A) (A) (A) (A) (A) (A) (A) (A) (A) (A) (A)
                 (A) (A) (A) (A) (A) (A) (A) (A) (A) (A) (A) (A)
                 (A) (A) (A) (A) (A) (A) (A) (A) (A) (A) (A) (A)
                 (A) (A) (A) (A) (A) (A) (A) (A) (A) (A) (A) (A)
                 (A) (A) (A) (A) (A) (A) (A) (A) (A) (A) (A) (A)
                 (A) (A) (A) (A) (A) (A) (A) (A) (A) (A) (A) (A)
                 (A) (A) (A) (A) (A) (A) (A) (A) (A) (A) (A) (A)
                 (A) (A) (A) (A) (A) (A) (A) (A) (A) (A) (A) (A)
                 (A) (A) (A) (A) (A) (A) (A) (A) (A) (A) (A) (A)
                 (A) (A) (A) (A) (A) (A) (A) (A) (A) (A) (A) (A)
                 (A) (A) (A) (A) (A) (A) (A) (A) (A) (A) (A) (A)
                 (A) (A) (A) (A) (A) (A) (A) (A) (A) (A) (A) (A)
                 (A) (A) (A) (A) (A) (A) (A) (A) (A) (A) (A) (A)
                 (A) (A) (A) (A) (A) (A) (A) (A) (A) (A) (A) (A)
                 (A) (A) (A) (A) (A) (A) (A) (A) (A) (A) (A) (A)
                 (A) (A) (A) (A) (A) (A) (A) (A) (A) (A) (A) (A)
                 (A) (A) (A) (A) (A) (A) (A) (A) (A) (A) (A) (A)
                 (A) (A) (A) (A) (A) (A) (A) (A) (A) (A) (A) (A)
                 (A) (A) (A) (A) (A) (A) (A) (A) (A) (A) (A) (A)
                 (A) (A) (A) (A) (A) (A) (A) (A) (A) (A) (A) (A)
                 (A)
 The electronic state is 1-A.
 Alpha  occ. eigenvalues -- -145.30408 -19.16622 -19.11836 -19.11713 -19.11271
 Alpha  occ. eigenvalues --  -19.11155 -19.10843 -19.10270 -19.10022 -19.08631
 Alpha  occ. eigenvalues --  -19.08439 -19.07946 -19.07400 -19.06915 -19.06638
 Alpha  occ. eigenvalues --  -19.06121 -19.05930 -19.05134 -19.05039 -19.04284
 Alpha  occ. eigenvalues --  -19.03829 -19.03067 -19.02910 -19.02850 -19.01390
 Alpha  occ. eigenvalues --  -18.98376 -18.97430 -18.96763 -15.36617 -14.57757
 Alpha  occ. eigenvalues --  -14.49612 -14.38148 -14.37693 -14.36564 -14.36231
 Alpha  occ. eigenvalues --  -14.34558 -14.33624 -14.32647 -14.31972 -14.31951
 Alpha  occ. eigenvalues --  -14.31843 -14.31802 -14.30763 -14.28190 -12.50224
 Alpha  occ. eigenvalues --  -12.50200 -12.50038 -10.35092 -10.30770 -10.30437
 Alpha  occ. eigenvalues --  -10.29562 -10.29012 -10.28951 -10.28549 -10.26511
 Alpha  occ. eigenvalues --  -10.26423 -10.26330 -10.26325 -10.25637 -10.25630
 Alpha  occ. eigenvalues --  -10.25613 -10.25295 -10.25169 -10.25053 -10.24788
 Alpha  occ. eigenvalues --  -10.24547 -10.23874 -10.23802 -10.23394 -10.23387
 Alpha  occ. eigenvalues --  -10.23082 -10.22944 -10.22860 -10.22587 -10.21862
 Alpha  occ. eigenvalues --  -10.21751 -10.21667 -10.20436 -10.20348 -10.20096
 Alpha  occ. eigenvalues --  -10.19978 -10.19646 -10.18784 -10.18676 -10.18673
 Alpha  occ. eigenvalues --  -10.18550 -10.18486 -10.17755 -10.17690 -10.17628
 Alpha  occ. eigenvalues --  -10.17537 -10.16474 -10.15874 -10.15812 -10.15791
 Alpha  occ. eigenvalues --  -10.15122 -10.14936 -10.14694 -10.13340 -10.12901
 Alpha  occ. eigenvalues --  -10.11142  -1.74306  -1.11886  -1.05100  -1.04706
 Alpha  occ. eigenvalues --   -1.04433  -1.03886  -1.03796  -1.02827  -1.02811
 Alpha  occ. eigenvalues --   -1.02177  -1.02047  -1.01363  -1.00713  -1.00124
 Alpha  occ. eigenvalues --   -0.99888  -0.99620  -0.99409  -0.99004  -0.98310
 Alpha  occ. eigenvalues --   -0.98109  -0.97983  -0.97397  -0.96550  -0.96107
 Alpha  occ. eigenvalues --   -0.95585  -0.95039  -0.94222  -0.94180  -0.93688
 Alpha  occ. eigenvalues --   -0.93125  -0.92533  -0.92150  -0.91851  -0.90033
 Alpha  occ. eigenvalues --   -0.88612  -0.88562  -0.88501  -0.88282  -0.87826
 Alpha  occ. eigenvalues --   -0.87364  -0.87273  -0.86861  -0.86241  -0.85680
 Alpha  occ. eigenvalues --   -0.83986  -0.81983  -0.81807  -0.79868  -0.79678
 Alpha  occ. eigenvalues --   -0.78971  -0.78597  -0.77077  -0.76439  -0.76036
 Alpha  occ. eigenvalues --   -0.75629  -0.74553  -0.74173  -0.73601  -0.72970
 Alpha  occ. eigenvalues --   -0.72845  -0.71754  -0.71627  -0.71174  -0.70758
 Alpha  occ. eigenvalues --   -0.70439  -0.70067  -0.69814  -0.68917  -0.68779
 Alpha  occ. eigenvalues --   -0.67968  -0.67594  -0.65874  -0.65627  -0.64643
 Alpha  occ. eigenvalues --   -0.64339  -0.64103  -0.63319  -0.62995  -0.62359
 Alpha  occ. eigenvalues --   -0.62035  -0.61370  -0.61172  -0.60871  -0.60783
 Alpha  occ. eigenvalues --   -0.60275  -0.59565  -0.59397  -0.58634  -0.58586
 Alpha  occ. eigenvalues --   -0.57940  -0.57129  -0.56924  -0.56538  -0.56310
 Alpha  occ. eigenvalues --   -0.55902  -0.55706  -0.55006  -0.54846  -0.54550
 Alpha  occ. eigenvalues --   -0.54417  -0.54353  -0.53931  -0.53602  -0.53319
 Alpha  occ. eigenvalues --   -0.53119  -0.52024  -0.51695  -0.51407  -0.51142
 Alpha  occ. eigenvalues --   -0.50693  -0.50358  -0.50293  -0.49939  -0.49816
 Alpha  occ. eigenvalues --   -0.49645  -0.49119  -0.49029  -0.48917  -0.48871
 Alpha  occ. eigenvalues --   -0.48710  -0.48620  -0.48263  -0.48113  -0.47673
 Alpha  occ. eigenvalues --   -0.47299  -0.47187  -0.46818  -0.46642  -0.46429
 Alpha  occ. eigenvalues --   -0.46338  -0.46269  -0.46097  -0.46001  -0.45945
 Alpha  occ. eigenvalues --   -0.45832  -0.45601  -0.45301  -0.44901  -0.44648
 Alpha  occ. eigenvalues --   -0.44525  -0.44377  -0.44277  -0.44098  -0.44011
 Alpha  occ. eigenvalues --   -0.43877  -0.43260  -0.43197  -0.43103  -0.42745
 Alpha  occ. eigenvalues --   -0.42568  -0.42468  -0.42308  -0.42248  -0.42198
 Alpha  occ. eigenvalues --   -0.42111  -0.41699  -0.41519  -0.41433  -0.41328
 Alpha  occ. eigenvalues --   -0.40924  -0.40892  -0.40635  -0.40399  -0.40139
 Alpha  occ. eigenvalues --   -0.40006  -0.39926  -0.39639  -0.39444  -0.39281
 Alpha  occ. eigenvalues --   -0.39221  -0.39154  -0.39028  -0.38960  -0.38748
 Alpha  occ. eigenvalues --   -0.38645  -0.38609  -0.38446  -0.38324  -0.38252
 Alpha  occ. eigenvalues --   -0.38154  -0.37841  -0.37792  -0.37574  -0.37312
 Alpha  occ. eigenvalues --   -0.37305  -0.37220  -0.36998  -0.36966  -0.36768
 Alpha  occ. eigenvalues --   -0.36684  -0.36585  -0.36486  -0.36423  -0.36350
 Alpha  occ. eigenvalues --   -0.36273  -0.36111  -0.35946  -0.35785  -0.35710
 Alpha  occ. eigenvalues --   -0.35446  -0.35196  -0.35157  -0.34846  -0.34670
 Alpha  occ. eigenvalues --   -0.34501  -0.34465  -0.34412  -0.34276  -0.34029
 Alpha  occ. eigenvalues --   -0.33795  -0.33544  -0.33509  -0.33318  -0.33255
 Alpha  occ. eigenvalues --   -0.33136  -0.33054  -0.32903  -0.32730  -0.32568
 Alpha  occ. eigenvalues --   -0.32249  -0.32085  -0.32043  -0.31914  -0.31607
 Alpha  occ. eigenvalues --   -0.31498  -0.31309  -0.30447  -0.30126  -0.29908
 Alpha  occ. eigenvalues --   -0.29462  -0.29105  -0.29087  -0.28907  -0.28782
 Alpha  occ. eigenvalues --   -0.28436  -0.28292  -0.28027  -0.27852  -0.27782
 Alpha  occ. eigenvalues --   -0.27717  -0.27403  -0.27260  -0.26973  -0.26714
 Alpha  occ. eigenvalues --   -0.26248  -0.25915  -0.25787  -0.25252  -0.24383
 Alpha  occ. eigenvalues --   -0.24137  -0.24072  -0.23960  -0.23786  -0.23173
 Alpha  occ. eigenvalues --   -0.23118  -0.23026  -0.22967  -0.22761  -0.22577
 Alpha  occ. eigenvalues --   -0.22272  -0.21835  -0.21745  -0.21510  -0.21271
 Alpha  occ. eigenvalues --   -0.21145  -0.21126  -0.20956  -0.20808  -0.19898
 Alpha  occ. eigenvalues --   -0.19236  -0.19050  -0.18541  -0.18275  -0.17109
 Alpha  occ. eigenvalues --   -0.15187  -0.14932  -0.14645  -0.12157  -0.12098
 Alpha virt. eigenvalues --   -0.11533  -0.05559  -0.05241  -0.02764  -0.02465
 Alpha virt. eigenvalues --   -0.01388  -0.00954  -0.00035   0.00118   0.01278
 Alpha virt. eigenvalues --    0.01518   0.01938   0.02098   0.02312   0.02813
 Alpha virt. eigenvalues --    0.02932   0.03279   0.03733   0.03804   0.04073
 Alpha virt. eigenvalues --    0.04188   0.04652   0.04797   0.05054   0.05407
 Alpha virt. eigenvalues --    0.05670   0.05689   0.05799   0.05934   0.06186
 Alpha virt. eigenvalues --    0.06450   0.06495   0.06651   0.06736   0.07149
 Alpha virt. eigenvalues --    0.07312   0.07704   0.07730   0.07886   0.07976
 Alpha virt. eigenvalues --    0.08050   0.08389   0.08689   0.08884   0.08987
 Alpha virt. eigenvalues --    0.09124   0.09427   0.09586   0.09599   0.09971
 Alpha virt. eigenvalues --    0.10094   0.10460   0.10598   0.10651   0.10757
 Alpha virt. eigenvalues --    0.11031   0.11254   0.11385   0.11576   0.11638
 Alpha virt. eigenvalues --    0.11787   0.11867   0.11926   0.12313   0.12514
 Alpha virt. eigenvalues --    0.12597   0.12742   0.12926   0.13343   0.13428
 Alpha virt. eigenvalues --    0.13492   0.13850   0.13900   0.14100   0.14177
 Alpha virt. eigenvalues --    0.14357   0.14591   0.14677   0.14882   0.15057
 Alpha virt. eigenvalues --    0.15255   0.15369   0.15487   0.15590   0.15779
 Alpha virt. eigenvalues --    0.15834   0.15892   0.16061   0.16182   0.16239
 Alpha virt. eigenvalues --    0.16435   0.16548   0.16842   0.16951   0.17146
 Alpha virt. eigenvalues --    0.17214   0.17379   0.17404   0.17548   0.17726
 Alpha virt. eigenvalues --    0.18008   0.18213   0.18321   0.18698   0.19063
 Alpha virt. eigenvalues --    0.19208   0.19452   0.19479   0.19682   0.19743
 Alpha virt. eigenvalues --    0.19989   0.20173   0.20225   0.20741   0.20768
 Alpha virt. eigenvalues --    0.20931   0.21200   0.21259   0.21388   0.21503
 Alpha virt. eigenvalues --    0.21616   0.21760   0.21923   0.21950   0.22133
 Alpha virt. eigenvalues --    0.22344   0.22430   0.22829   0.23109   0.23260
 Alpha virt. eigenvalues --    0.23497   0.23691   0.24004   0.24090   0.24236
 Alpha virt. eigenvalues --    0.24252   0.24580   0.24623   0.24868   0.24968
 Alpha virt. eigenvalues --    0.25217   0.25351   0.25581   0.25924   0.26231
 Alpha virt. eigenvalues --    0.26256   0.26478   0.26651   0.26942   0.27188
 Alpha virt. eigenvalues --    0.27498   0.27685   0.27780   0.28117   0.28349
 Alpha virt. eigenvalues --    0.28467   0.28540   0.28702   0.29064   0.29165
 Alpha virt. eigenvalues --    0.29481   0.29628   0.29803   0.30022   0.30280
 Alpha virt. eigenvalues --    0.30326   0.30547   0.30638   0.30919   0.31357
 Alpha virt. eigenvalues --    0.31757   0.32030   0.32163   0.32310   0.32445
 Alpha virt. eigenvalues --    0.32651   0.32782   0.32980   0.33274   0.33588
 Alpha virt. eigenvalues --    0.34076   0.34419   0.34499   0.34806   0.35001
 Alpha virt. eigenvalues --    0.35267   0.35395   0.35598   0.35970   0.36136
 Alpha virt. eigenvalues --    0.36317   0.37085   0.37354   0.37616   0.38004
 Alpha virt. eigenvalues --    0.38102   0.38349   0.38428   0.38735   0.39239
 Alpha virt. eigenvalues --    0.39519   0.39739   0.39893   0.40181   0.40522
 Alpha virt. eigenvalues --    0.40902   0.41156   0.41355   0.41581   0.41653
 Alpha virt. eigenvalues --    0.41976   0.42348   0.42577   0.42773   0.42905
 Alpha virt. eigenvalues --    0.43242   0.43482   0.43844   0.43927   0.44445
 Alpha virt. eigenvalues --    0.44601   0.44706   0.44931   0.45125   0.45168
 Alpha virt. eigenvalues --    0.45365   0.45792   0.45966   0.46024   0.46203
 Alpha virt. eigenvalues --    0.46289   0.46731   0.47041   0.47110   0.47400
 Alpha virt. eigenvalues --    0.47516   0.47800   0.48001   0.48313   0.48577
 Alpha virt. eigenvalues --    0.48722   0.48938   0.49176   0.49259   0.49383
 Alpha virt. eigenvalues --    0.49632   0.50012   0.50130   0.50466   0.50738
 Alpha virt. eigenvalues --    0.50919   0.51092   0.51308   0.51459   0.51687
 Alpha virt. eigenvalues --    0.51744   0.51910   0.52205   0.52404   0.52795
 Alpha virt. eigenvalues --    0.52917   0.52991   0.53305   0.53508   0.53574
 Alpha virt. eigenvalues --    0.53716   0.53789   0.53889   0.54204   0.54435
 Alpha virt. eigenvalues --    0.54563   0.54646   0.54828   0.55234   0.55442
 Alpha virt. eigenvalues --    0.55620   0.55704   0.55851   0.56097   0.56183
 Alpha virt. eigenvalues --    0.56378   0.56625   0.56929   0.56999   0.57093
 Alpha virt. eigenvalues --    0.57272   0.57343   0.57493   0.57662   0.57869
 Alpha virt. eigenvalues --    0.58126   0.58241   0.58463   0.58573   0.58654
 Alpha virt. eigenvalues --    0.58656   0.58786   0.58854   0.59243   0.59317
 Alpha virt. eigenvalues --    0.59441   0.59719   0.59803   0.59888   0.60083
 Alpha virt. eigenvalues --    0.60155   0.60311   0.60499   0.60538   0.60666
 Alpha virt. eigenvalues --    0.60928   0.61025   0.61129   0.61292   0.61377
 Alpha virt. eigenvalues --    0.61537   0.61571   0.61725   0.61906   0.62037
 Alpha virt. eigenvalues --    0.62087   0.62182   0.62401   0.62584   0.62620
 Alpha virt. eigenvalues --    0.62776   0.62807   0.62962   0.63062   0.63173
 Alpha virt. eigenvalues --    0.63416   0.63477   0.63566   0.63794   0.63859
 Alpha virt. eigenvalues --    0.63962   0.64167   0.64241   0.64387   0.64461
 Alpha virt. eigenvalues --    0.64503   0.64744   0.64790   0.64984   0.65158
 Alpha virt. eigenvalues --    0.65178   0.65302   0.65356   0.65485   0.65533
 Alpha virt. eigenvalues --    0.65709   0.65790   0.65929   0.66110   0.66253
 Alpha virt. eigenvalues --    0.66376   0.66472   0.66647   0.66730   0.66828
 Alpha virt. eigenvalues --    0.66856   0.67014   0.67074   0.67186   0.67313
 Alpha virt. eigenvalues --    0.67440   0.67505   0.67668   0.67848   0.67982
 Alpha virt. eigenvalues --    0.68102   0.68146   0.68383   0.68475   0.68612
 Alpha virt. eigenvalues --    0.68693   0.68753   0.68807   0.68931   0.69012
 Alpha virt. eigenvalues --    0.69135   0.69153   0.69442   0.69561   0.69734
 Alpha virt. eigenvalues --    0.69787   0.69844   0.69954   0.70007   0.70190
 Alpha virt. eigenvalues --    0.70239   0.70502   0.70550   0.70723   0.70747
 Alpha virt. eigenvalues --    0.70837   0.70895   0.71036   0.71186   0.71201
 Alpha virt. eigenvalues --    0.71368   0.71552   0.71837   0.71905   0.72080
 Alpha virt. eigenvalues --    0.72157   0.72340   0.72415   0.72459   0.72576
 Alpha virt. eigenvalues --    0.72886   0.73112   0.73172   0.73299   0.73880
 Alpha virt. eigenvalues --    0.73901   0.74008   0.74129   0.74151   0.74467
 Alpha virt. eigenvalues --    0.74588   0.74834   0.75003   0.75110   0.75147
 Alpha virt. eigenvalues --    0.75327   0.75588   0.75664   0.75842   0.76061
 Alpha virt. eigenvalues --    0.76236   0.76458   0.76637   0.76890   0.77184
 Alpha virt. eigenvalues --    0.77298   0.77473   0.77663   0.77721   0.78111
 Alpha virt. eigenvalues --    0.78208   0.78570   0.78653   0.78869   0.79156
 Alpha virt. eigenvalues --    0.79464   0.79667   0.79779   0.80172   0.80340
 Alpha virt. eigenvalues --    0.80643   0.80717   0.81417   0.81588   0.81632
 Alpha virt. eigenvalues --    0.82289   0.82481   0.82746   0.82881   0.82963
 Alpha virt. eigenvalues --    0.83191   0.83569   0.83772   0.84249   0.84322
 Alpha virt. eigenvalues --    0.84669   0.84830   0.84906   0.85328   0.85736
 Alpha virt. eigenvalues --    0.86148   0.86333   0.86544   0.86882   0.87110
 Alpha virt. eigenvalues --    0.87321   0.87509   0.88020   0.88329   0.88387
 Alpha virt. eigenvalues --    0.88548   0.88750   0.89187   0.89256   0.89557
 Alpha virt. eigenvalues --    0.90254   0.90542   0.90617   0.90826   0.91086
 Alpha virt. eigenvalues --    0.91406   0.91633   0.91817   0.92067   0.92633
 Alpha virt. eigenvalues --    0.92944   0.93189   0.93659   0.93677   0.93918
 Alpha virt. eigenvalues --    0.94382   0.94584   0.94625   0.94924   0.95334
 Alpha virt. eigenvalues --    0.95579   0.95696   0.95804   0.96212   0.96504
 Alpha virt. eigenvalues --    0.96787   0.96917   0.97092   0.97427   0.97662
 Alpha virt. eigenvalues --    0.97798   0.98005   0.98367   0.98944   0.99105
 Alpha virt. eigenvalues --    0.99593   0.99918   1.00186   1.00281   1.00543
 Alpha virt. eigenvalues --    1.00926   1.01077   1.01450   1.01613   1.02082
 Alpha virt. eigenvalues --    1.02318   1.02446   1.02822   1.03094   1.03253
 Alpha virt. eigenvalues --    1.03472   1.03658   1.03757   1.03976   1.04254
 Alpha virt. eigenvalues --    1.04461   1.04704   1.05113   1.05339   1.05599
 Alpha virt. eigenvalues --    1.05822   1.05935   1.06336   1.06898   1.07020
 Alpha virt. eigenvalues --    1.07391   1.07557   1.07722   1.07901   1.08229
 Alpha virt. eigenvalues --    1.08479   1.08643   1.08857   1.09236   1.09534
 Alpha virt. eigenvalues --    1.09802   1.09919   1.10168   1.10532   1.10723
 Alpha virt. eigenvalues --    1.10959   1.11070   1.11333   1.11692   1.11800
 Alpha virt. eigenvalues --    1.12029   1.12317   1.12433   1.12482   1.12784
 Alpha virt. eigenvalues --    1.13114   1.13460   1.13629   1.14178   1.14374
 Alpha virt. eigenvalues --    1.14629   1.14784   1.14927   1.15286   1.15434
 Alpha virt. eigenvalues --    1.15620   1.15714   1.15913   1.16289   1.16428
 Alpha virt. eigenvalues --    1.16741   1.16884   1.17123   1.17384   1.17621
 Alpha virt. eigenvalues --    1.17838   1.17988   1.18522   1.18712   1.18962
 Alpha virt. eigenvalues --    1.19136   1.19311   1.19688   1.19829   1.20112
 Alpha virt. eigenvalues --    1.20312   1.20676   1.20708   1.20912   1.21221
 Alpha virt. eigenvalues --    1.21344   1.21686   1.22018   1.22207   1.22213
 Alpha virt. eigenvalues --    1.22380   1.22608   1.22676   1.22894   1.23195
 Alpha virt. eigenvalues --    1.23322   1.23850   1.23968   1.24205   1.24600
 Alpha virt. eigenvalues --    1.24713   1.24885   1.25262   1.25600   1.25858
 Alpha virt. eigenvalues --    1.26108   1.26518   1.26748   1.26968   1.27115
 Alpha virt. eigenvalues --    1.27225   1.27356   1.27639   1.28009   1.28130
 Alpha virt. eigenvalues --    1.28446   1.28649   1.29050   1.29232   1.29370
 Alpha virt. eigenvalues --    1.29856   1.29988   1.30409   1.30630   1.30986
 Alpha virt. eigenvalues --    1.31240   1.31517   1.31688   1.32193   1.32344
 Alpha virt. eigenvalues --    1.32642   1.32858   1.32888   1.33409   1.33873
 Alpha virt. eigenvalues --    1.34003   1.34251   1.34317   1.34666   1.34881
 Alpha virt. eigenvalues --    1.35289   1.35442   1.35528   1.35681   1.36034
 Alpha virt. eigenvalues --    1.36214   1.36404   1.36522   1.37016   1.37195
 Alpha virt. eigenvalues --    1.37303   1.37564   1.37765   1.38091   1.38485
 Alpha virt. eigenvalues --    1.38773   1.39039   1.39137   1.39603   1.40057
 Alpha virt. eigenvalues --    1.40117   1.40263   1.40423   1.40645   1.40737
 Alpha virt. eigenvalues --    1.40964   1.41478   1.41593   1.41997   1.42132
 Alpha virt. eigenvalues --    1.42284   1.42514   1.42833   1.43338   1.43443
 Alpha virt. eigenvalues --    1.44140   1.44422   1.44604   1.44974   1.45110
 Alpha virt. eigenvalues --    1.45357   1.45718   1.45868   1.46404   1.46834
 Alpha virt. eigenvalues --    1.47168   1.47373   1.47744   1.47829   1.47921
 Alpha virt. eigenvalues --    1.48441   1.48527   1.48629   1.48805   1.49378
 Alpha virt. eigenvalues --    1.49737   1.49960   1.50128   1.50266   1.50662
 Alpha virt. eigenvalues --    1.50784   1.51229   1.51329   1.51748   1.51922
 Alpha virt. eigenvalues --    1.52373   1.52464   1.52825   1.53095   1.53502
 Alpha virt. eigenvalues --    1.53630   1.53790   1.54398   1.54528   1.54720
 Alpha virt. eigenvalues --    1.55001   1.55311   1.55820   1.56059   1.56161
 Alpha virt. eigenvalues --    1.56216   1.56575   1.56705   1.56782   1.56855
 Alpha virt. eigenvalues --    1.57494   1.58009   1.58133   1.58559   1.58888
 Alpha virt. eigenvalues --    1.59307   1.59494   1.59590   1.60138   1.60307
 Alpha virt. eigenvalues --    1.61009   1.61133   1.61483   1.62095   1.62337
 Alpha virt. eigenvalues --    1.62525   1.62698   1.62855   1.63220   1.63477
 Alpha virt. eigenvalues --    1.63568   1.63986   1.64241   1.64319   1.64530
 Alpha virt. eigenvalues --    1.64749   1.65129   1.65344   1.65516   1.65836
 Alpha virt. eigenvalues --    1.66174   1.66372   1.66612   1.67056   1.67150
 Alpha virt. eigenvalues --    1.67672   1.67804   1.68248   1.68404   1.68553
 Alpha virt. eigenvalues --    1.68817   1.68948   1.68972   1.69179   1.69559
 Alpha virt. eigenvalues --    1.70133   1.70276   1.70429   1.70665   1.70775
 Alpha virt. eigenvalues --    1.71123   1.71194   1.71479   1.71560   1.71898
 Alpha virt. eigenvalues --    1.72031   1.72113   1.72761   1.72934   1.73045
 Alpha virt. eigenvalues --    1.73249   1.73307   1.73526   1.73708   1.73781
 Alpha virt. eigenvalues --    1.74039   1.74189   1.74779   1.74856   1.74897
 Alpha virt. eigenvalues --    1.75334   1.75651   1.75701   1.75868   1.76088
 Alpha virt. eigenvalues --    1.76301   1.76594   1.76770   1.76915   1.77110
 Alpha virt. eigenvalues --    1.77246   1.77283   1.77624   1.77798   1.78029
 Alpha virt. eigenvalues --    1.78095   1.78136   1.78277   1.78515   1.78679
 Alpha virt. eigenvalues --    1.78794   1.79001   1.79214   1.79346   1.79439
 Alpha virt. eigenvalues --    1.79575   1.79820   1.79858   1.80036   1.80088
 Alpha virt. eigenvalues --    1.80373   1.80539   1.80701   1.80750   1.80875
 Alpha virt. eigenvalues --    1.81051   1.81424   1.81488   1.81515   1.81681
 Alpha virt. eigenvalues --    1.81823   1.81870   1.82149   1.82639   1.82674
 Alpha virt. eigenvalues --    1.82945   1.83135   1.83315   1.83601   1.83813
 Alpha virt. eigenvalues --    1.83870   1.83963   1.84132   1.84178   1.84221
 Alpha virt. eigenvalues --    1.84367   1.84665   1.84748   1.84917   1.85087
 Alpha virt. eigenvalues --    1.85342   1.85511   1.85693   1.85904   1.85984
 Alpha virt. eigenvalues --    1.86320   1.86369   1.86578   1.86681   1.87012
 Alpha virt. eigenvalues --    1.87049   1.87590   1.87721   1.87753   1.87837
 Alpha virt. eigenvalues --    1.88102   1.88218   1.88489   1.88640   1.88741
 Alpha virt. eigenvalues --    1.88780   1.88974   1.89113   1.89146   1.89366
 Alpha virt. eigenvalues --    1.89555   1.89578   1.89816   1.90174   1.90387
 Alpha virt. eigenvalues --    1.90503   1.90783   1.90959   1.91293   1.91457
 Alpha virt. eigenvalues --    1.91592   1.91949   1.91999   1.92180   1.92332
 Alpha virt. eigenvalues --    1.92388   1.92509   1.92727   1.92840   1.93223
 Alpha virt. eigenvalues --    1.93368   1.93437   1.93542   1.93738   1.94205
 Alpha virt. eigenvalues --    1.94227   1.94467   1.94498   1.94653   1.94703
 Alpha virt. eigenvalues --    1.95085   1.95170   1.95312   1.95735   1.95756
 Alpha virt. eigenvalues --    1.96006   1.96300   1.96384   1.96681   1.96817
 Alpha virt. eigenvalues --    1.97021   1.97165   1.97417   1.97552   1.97825
 Alpha virt. eigenvalues --    1.98085   1.98397   1.98405   1.98801   1.98936
 Alpha virt. eigenvalues --    1.98945   1.99164   1.99368   1.99750   1.99903
 Alpha virt. eigenvalues --    2.00157   2.00282   2.00663   2.00957   2.01086
 Alpha virt. eigenvalues --    2.01301   2.01647   2.01874   2.02146   2.02222
 Alpha virt. eigenvalues --    2.02409   2.02479   2.02934   2.03279   2.03771
 Alpha virt. eigenvalues --    2.03962   2.04149   2.04345   2.04556   2.04777
 Alpha virt. eigenvalues --    2.04953   2.04964   2.05387   2.05662   2.05735
 Alpha virt. eigenvalues --    2.05813   2.06135   2.06393   2.06862   2.07140
 Alpha virt. eigenvalues --    2.07436   2.07723   2.08106   2.08159   2.08477
 Alpha virt. eigenvalues --    2.08592   2.08919   2.08977   2.09739   2.09816
 Alpha virt. eigenvalues --    2.10089   2.10181   2.10510   2.10613   2.10847
 Alpha virt. eigenvalues --    2.11301   2.11464   2.12012   2.12143   2.12220
 Alpha virt. eigenvalues --    2.12559   2.12644   2.13146   2.13392   2.13623
 Alpha virt. eigenvalues --    2.13977   2.14095   2.14213   2.14425   2.14541
 Alpha virt. eigenvalues --    2.14746   2.15172   2.15436   2.15819   2.16069
 Alpha virt. eigenvalues --    2.16172   2.16385   2.16630   2.17104   2.17253
 Alpha virt. eigenvalues --    2.17440   2.17579   2.18237   2.18300   2.18915
 Alpha virt. eigenvalues --    2.18973   2.19143   2.19165   2.19381   2.20060
 Alpha virt. eigenvalues --    2.20244   2.20597   2.20730   2.21003   2.21666
 Alpha virt. eigenvalues --    2.21944   2.22580   2.22682   2.23119   2.23608
 Alpha virt. eigenvalues --    2.23780   2.24362   2.24856   2.24910   2.25317
 Alpha virt. eigenvalues --    2.25905   2.26051   2.26174   2.26333   2.26551
 Alpha virt. eigenvalues --    2.26738   2.27122   2.27452   2.27740   2.27786
 Alpha virt. eigenvalues --    2.28399   2.28572   2.28598   2.28831   2.29401
 Alpha virt. eigenvalues --    2.29658   2.30233   2.30368   2.31091   2.31349
 Alpha virt. eigenvalues --    2.31684   2.31909   2.32195   2.32278   2.32474
 Alpha virt. eigenvalues --    2.32586   2.32946   2.33226   2.33515   2.33698
 Alpha virt. eigenvalues --    2.34481   2.34909   2.35052   2.35279   2.35987
 Alpha virt. eigenvalues --    2.36120   2.37114   2.37265   2.37422   2.37823
 Alpha virt. eigenvalues --    2.38298   2.38474   2.38606   2.38748   2.38951
 Alpha virt. eigenvalues --    2.39075   2.39188   2.39309   2.40053   2.40461
 Alpha virt. eigenvalues --    2.40551   2.41286   2.41499   2.41849   2.42026
 Alpha virt. eigenvalues --    2.42863   2.43229   2.43311   2.43597   2.43746
 Alpha virt. eigenvalues --    2.44689   2.44844   2.44972   2.45176   2.45241
 Alpha virt. eigenvalues --    2.45343   2.45587   2.46246   2.46418   2.46668
 Alpha virt. eigenvalues --    2.46868   2.47173   2.47569   2.47768   2.48039
 Alpha virt. eigenvalues --    2.48350   2.48597   2.48824   2.49051   2.50012
 Alpha virt. eigenvalues --    2.50385   2.50655   2.50691   2.51127   2.51321
 Alpha virt. eigenvalues --    2.51570   2.52057   2.52391   2.52735   2.53161
 Alpha virt. eigenvalues --    2.53386   2.53504   2.53681   2.54291   2.54338
 Alpha virt. eigenvalues --    2.54523   2.54857   2.55422   2.55427   2.55739
 Alpha virt. eigenvalues --    2.56322   2.56619   2.56862   2.57053   2.57369
 Alpha virt. eigenvalues --    2.57689   2.57764   2.57936   2.58116   2.58182
 Alpha virt. eigenvalues --    2.58777   2.58950   2.59196   2.59508   2.59724
 Alpha virt. eigenvalues --    2.59888   2.60489   2.60548   2.60788   2.61089
 Alpha virt. eigenvalues --    2.61396   2.61489   2.61845   2.62432   2.62634
 Alpha virt. eigenvalues --    2.63070   2.63291   2.63687   2.63784   2.64092
 Alpha virt. eigenvalues --    2.64488   2.65230   2.65914   2.66879   2.67071
 Alpha virt. eigenvalues --    2.67218   2.67566   2.67962   2.68437   2.68858
 Alpha virt. eigenvalues --    2.69183   2.69558   2.69640   2.69746   2.69886
 Alpha virt. eigenvalues --    2.70388   2.70839   2.71546   2.71725   2.72429
 Alpha virt. eigenvalues --    2.72581   2.72954   2.73049   2.73283   2.73493
 Alpha virt. eigenvalues --    2.73748   2.73994   2.74061   2.74451   2.74585
 Alpha virt. eigenvalues --    2.74878   2.74968   2.75284   2.75822   2.76526
 Alpha virt. eigenvalues --    2.76592   2.76799   2.77031   2.77170   2.77336
 Alpha virt. eigenvalues --    2.77416   2.77685   2.77863   2.77917   2.78382
 Alpha virt. eigenvalues --    2.79054   2.79127   2.79214   2.79694   2.79843
 Alpha virt. eigenvalues --    2.80264   2.80315   2.80465   2.80552   2.80597
 Alpha virt. eigenvalues --    2.80668   2.80969   2.81041   2.81347   2.81593
 Alpha virt. eigenvalues --    2.81619   2.82156   2.82339   2.82709   2.82744
 Alpha virt. eigenvalues --    2.83145   2.83389   2.83460   2.83814   2.84277
 Alpha virt. eigenvalues --    2.84494   2.84748   2.85180   2.85342   2.85778
 Alpha virt. eigenvalues --    2.86014   2.86245   2.86541   2.86990   2.87313
 Alpha virt. eigenvalues --    2.87609   2.87708   2.88052   2.88481   2.89011
 Alpha virt. eigenvalues --    2.89427   2.89585   2.89967   2.90116   2.90316
 Alpha virt. eigenvalues --    2.90418   2.90598   2.90817   2.91672   2.91949
 Alpha virt. eigenvalues --    2.92081   2.92280   2.92520   2.92810   2.93000
 Alpha virt. eigenvalues --    2.93267   2.93482   2.93554   2.93678   2.94124
 Alpha virt. eigenvalues --    2.94496   2.94570   2.94709   2.94750   2.95567
 Alpha virt. eigenvalues --    2.95665   2.95993   2.96208   2.96379   2.96690
 Alpha virt. eigenvalues --    2.97069   2.97499   2.97636   2.97793   2.98448
 Alpha virt. eigenvalues --    2.98651   2.98819   2.98981   2.99082   2.99287
 Alpha virt. eigenvalues --    2.99637   3.00150   3.00259   3.00653   3.01021
 Alpha virt. eigenvalues --    3.01089   3.01558   3.01795   3.01838   3.01961
 Alpha virt. eigenvalues --    3.02284   3.02699   3.02904   3.03153   3.03364
 Alpha virt. eigenvalues --    3.03515   3.03753   3.04329   3.04377   3.04914
 Alpha virt. eigenvalues --    3.05313   3.05479   3.06128   3.06375   3.06837
 Alpha virt. eigenvalues --    3.07082   3.07677   3.08087   3.08102   3.08606
 Alpha virt. eigenvalues --    3.09225   3.09354   3.09645   3.09899   3.09968
 Alpha virt. eigenvalues --    3.10299   3.10605   3.10811   3.11374   3.11923
 Alpha virt. eigenvalues --    3.12622   3.14251   3.14395   3.14708   3.14749
 Alpha virt. eigenvalues --    3.14998   3.15519   3.15629   3.16309   3.16475
 Alpha virt. eigenvalues --    3.16622   3.16931   3.17034   3.17532   3.18095
 Alpha virt. eigenvalues --    3.18201   3.18532   3.18913   3.19015   3.19118
 Alpha virt. eigenvalues --    3.19616   3.20234   3.20345   3.20470   3.20698
 Alpha virt. eigenvalues --    3.20852   3.20974   3.21261   3.21891   3.22867
 Alpha virt. eigenvalues --    3.23023   3.23566   3.23601   3.24169   3.24703
 Alpha virt. eigenvalues --    3.25527   3.26008   3.26675   3.28154   3.28634
 Alpha virt. eigenvalues --    3.29241   3.30217   3.30249   3.30461   3.30632
 Alpha virt. eigenvalues --    3.31851   3.32666   3.32839   3.35752   3.37144
 Alpha virt. eigenvalues --    3.38026   3.38848   3.39863   3.40079   3.40615
 Alpha virt. eigenvalues --    3.42346   3.44068   3.45148   3.47901   3.48682
 Alpha virt. eigenvalues --    3.49017   3.51386   3.51786   3.52961   3.53687
 Alpha virt. eigenvalues --    3.54220   3.54438   3.54770   3.56701   3.57166
 Alpha virt. eigenvalues --    3.58074   3.58593   3.58868   3.60053   3.60788
 Alpha virt. eigenvalues --    3.64897   3.66117   3.66264   3.66903   3.67257
 Alpha virt. eigenvalues --    3.67786   3.68516   3.69682   3.69985   3.70020
[...]
 **** Fit       0.025731
 **** Fit       0.026243
 **** Fit       0.026405
 **** Fit       0.024819
 **** Fit       0.024120
 **** Fit       0.022905
 **** Fit       0.021405
 **** Fit       0.020035
 **** Fit       0.019281
 **** Fit       0.019448
 **** Fit       0.020468
 **** Fit       0.021948
 **** Fit       0.023396
 **** Fit       0.024443
 **** Fit       0.024929
 **** Fit       0.023471
 **** Fit       0.022447
 **** Fit       0.021070
 **** Fit       0.020808
 **** Fit       0.021976
 **** Fit       0.023260
 **** Fit       0.022143
 **** Fit       0.029611
 **** Fit       0.024157
 **** Fit       0.017943
 **** Fit       0.011436
 **** Fit       0.004859
 **** Fit      -0.001925
 **** Fit       0.030848
 **** Fit       0.026685
 **** Fit       0.021924
 **** Fit       0.016775
 **** Fit       0.011422
 **** Fit       0.005914
 **** Fit       0.000165
 **** Fit      -0.005977
 **** Fit       0.030497
 **** Fit       0.027068
 **** Fit       0.023220
 **** Fit       0.019044
 **** Fit       0.014644
 **** Fit       0.010083
 **** Fit       0.005366
 **** Fit       0.000469
 **** Fit      -0.004606
 **** Fit       0.028974
 **** Fit       0.025863
 **** Fit       0.022443
 **** Fit       0.018768
 **** Fit       0.014903
 **** Fit       0.010900
 **** Fit       0.006791
 **** Fit       0.002619
 **** Fit      -0.001526
 **** Fit      -0.005455
 **** Fit       0.027069
 **** Fit       0.024143
 **** Fit       0.020978
 **** Fit       0.017620
 **** Fit       0.014122
 **** Fit       0.010544
 **** Fit       0.006955
 **** Fit       0.003470
 **** Fit       0.000273
 **** Fit      -0.002350
 **** Fit      -0.004013
 **** Fit      -0.004272
 **** Fit       0.025300
 **** Fit       0.022577
 **** Fit       0.019678
 **** Fit       0.016647
 **** Fit       0.013546
 **** Fit       0.010459
 **** Fit       0.007505
 **** Fit       0.004858
 **** Fit       0.002762
 **** Fit       0.001522
 **** Fit       0.001460
 **** Fit       0.022810
 **** Fit       0.020080
 **** Fit       0.017244
 **** Fit       0.014388
 **** Fit       0.011634
 **** Fit       0.009158
 **** Fit       0.007198
 **** Fit       0.006048
 **** Fit       0.006008
 **** Fit       0.020457
 **** Fit       0.017817
 **** Fit       0.015231
 **** Fit       0.012873
 **** Fit       0.010986
 **** Fit       0.009869
 **** Fit       0.017811
 **** Fit       0.015535
 **** Fit       0.013830
 **** Fit       0.035803
 **** Fit       0.040245
 **** Fit       0.031154
 **** Fit       0.031303
 **** Fit       0.033119
 **** Fit       0.035970
 **** Fit       0.039267
 **** Fit       0.042536
 **** Fit       0.037792
 **** Fit       0.035590
 **** Fit       0.034796
 **** Fit       0.035284
 **** Fit       0.036779
 **** Fit       0.038938
 **** Fit       0.041417
 **** Fit       0.043921
 **** Fit       0.040313
 **** Fit       0.038575
 **** Fit       0.037420
 **** Fit       0.037078
 **** Fit       0.037569
 **** Fit       0.038771
 **** Fit       0.040476
 **** Fit       0.042451
 **** Fit       0.044478
 **** Fit       0.039436
 **** Fit       0.039624
 **** Fit       0.039255
 **** Fit       0.038674
 **** Fit       0.038245
 **** Fit       0.038229
 **** Fit       0.038739
 **** Fit       0.039753
 **** Fit       0.041154
 **** Fit       0.042777
 **** Fit       0.044449
 **** Fit       0.035701
 **** Fit       0.036926
 **** Fit       0.037613
 **** Fit       0.037948
 **** Fit       0.038182
 **** Fit       0.038543
 **** Fit       0.039173
 **** Fit       0.040114
 **** Fit       0.041317
 **** Fit       0.042670
 **** Fit       0.044033
 **** Fit       0.034840
 **** Fit       0.036178
 **** Fit       0.037141
 **** Fit       0.037933
 **** Fit       0.038750
 **** Fit       0.039712
 **** Fit       0.040844
 **** Fit       0.042077
 **** Fit       0.035111
 **** Fit       0.036530
 **** Fit       0.037734
 **** Fit       0.038880
 **** Fit       0.040062
 **** Fit       0.041274
 **** Fit       0.037347
 **** Fit       0.038800
 **** Fit       0.040186
 **** Fit      -0.027012
 **** Fit      -0.025306
 **** Fit      -0.026408
 **** Fit      -0.028805
 **** Fit      -0.032525
 **** Fit      -0.037746
 **** Fit      -0.024708
 **** Fit      -0.024814
 **** Fit      -0.026165
 **** Fit      -0.029008
 **** Fit      -0.033471
 **** Fit      -0.039578
 **** Fit      -0.025909
 **** Fit      -0.025829
 **** Fit      -0.027706
 **** Fit      -0.031649
 **** Fit      -0.037523
 **** Fit      -0.044619
 **** Fit      -0.046559
 **** Fit      -0.031963
 **** Fit      -0.028662
 **** Fit      -0.028170
 **** Fit      -0.030813
 **** Fit      -0.036252
 **** Fit      -0.043147
 **** Fit      -0.044653
 **** Fit      -0.040494
 **** Fit      -0.036545
 **** Fit      -0.033215
 **** Fit      -0.031712
 **** Fit      -0.035864
 **** Fit      -0.041808
 **** Fit      -0.042353
 **** Fit      -0.037921
 **** Fit      -0.036406
 **** Fit      -0.027440
 **** Fit      -0.023507
 **** Fit      -0.028527
 **** Fit      -0.026870
 **** Fit      -0.023856
 **** Fit      -0.019940
 **** Fit      -0.015490
 **** Fit      -0.026895
 **** Fit      -0.024802
 **** Fit      -0.021676
 **** Fit      -0.017876
 **** Fit      -0.013725
 **** Fit      -0.009529
 **** Fit      -0.028095
 **** Fit      -0.026609
 **** Fit      -0.024121
 **** Fit      -0.020853
 **** Fit      -0.017072
 **** Fit      -0.013061
 **** Fit      -0.033939
 **** Fit      -0.030752
 **** Fit      -0.027637
 **** Fit      -0.024223
 **** Fit      -0.034859
 **** Fit      -0.019205
 **** Fit      -0.015460
 **** Fit      -0.011906
 **** Fit      -0.008664
 **** Fit      -0.005874
 **** Fit      -0.003705
 **** Fit      -0.002361
 **** Fit      -0.002104
 **** Fit      -0.003288
 **** Fit      -0.006433
 **** Fit      -0.012374
 **** Fit      -0.028086
 **** Fit      -0.023366
 **** Fit      -0.019262
 **** Fit      -0.015546
 **** Fit      -0.012178
 **** Fit      -0.009207
 **** Fit      -0.006735
 **** Fit      -0.004907
 **** Fit      -0.003912
 **** Fit      -0.004008
 **** Fit      -0.005566
 **** Fit      -0.009153
 **** Fit      -0.015711
 **** Fit      -0.034449
 **** Fit      -0.027265
 **** Fit      -0.021896
 **** Fit      -0.017546
 **** Fit      -0.013872
 **** Fit      -0.010767
 **** Fit      -0.008250
 **** Fit      -0.006420
 **** Fit      -0.005441
 **** Fit      -0.005557
 **** Fit      -0.007131
 **** Fit      -0.010735
 **** Fit      -0.017315
 **** Fit      -0.026749
 **** Fit      -0.020988
 **** Fit      -0.016543
 **** Fit      -0.013014
 **** Fit      -0.010259
 **** Fit      -0.008286
 **** Fit      -0.007206
 **** Fit      -0.007223
 **** Fit      -0.008663
 **** Fit      -0.012040
 **** Fit      -0.018184
 **** Fit      -0.032806
 **** Fit      -0.024769
 **** Fit      -0.019071
 **** Fit      -0.014891
 **** Fit      -0.011882
 **** Fit      -0.009969
 **** Fit      -0.009256
 **** Fit      -0.009998
 **** Fit      -0.012636
 **** Fit      -0.017867
 **** Fit      -0.030377
 **** Fit      -0.022929
 **** Fit      -0.017808
 **** Fit      -0.014406
 **** Fit      -0.012530
 **** Fit      -0.012264
 **** Fit      -0.013912
 **** Fit      -0.017992
 **** Fit      -0.025194
 **** Fit      -0.032665
 **** Fit      -0.031308
 **** Fit      -0.023656
 **** Fit      -0.018834
 **** Fit      -0.016364
 **** Fit      -0.016217
 **** Fit      -0.018684
 **** Fit      -0.024169
 **** Fit      -0.031146
 **** Fit      -0.039095
 **** Fit      -0.026950
 **** Fit      -0.021991
 **** Fit      -0.021078
 **** Fit      -0.024285
 **** Fit      -0.031896
 **** Fit      -0.039767
 **** Fit      -0.030785
 **** Fit      -0.027227
 **** Fit      -0.035066
 **** Fit      -0.020116
 **** Fit      -0.017828
 **** Fit      -0.014762
 **** Fit      -0.012457
 **** Fit      -0.018334
 **** Fit      -0.014466
 **** Fit      -0.011237
 **** Fit      -0.008439
 **** Fit      -0.019352
 **** Fit      -0.015233
 **** Fit      -0.011696
 **** Fit      -0.008675
 **** Fit      -0.006011
 **** Fit      -0.003372
 **** Fit      -0.022823
 **** Fit      -0.018265
 **** Fit      -0.014202
 **** Fit      -0.010676
 **** Fit      -0.007668
 **** Fit      -0.005096
 **** Fit      -0.002777
 **** Fit      -0.000339
 **** Fit      -0.021675
 **** Fit      -0.017313
 **** Fit      -0.013402
 **** Fit      -0.009987
 **** Fit      -0.007075
 **** Fit      -0.004638
 **** Fit      -0.002597
 **** Fit      -0.000794
 **** Fit       0.001089
 **** Fit      -0.017704
 **** Fit      -0.013719
 **** Fit      -0.010237
 **** Fit      -0.007272
 **** Fit      -0.004820
 **** Fit      -0.002860
 **** Fit      -0.001342
 **** Fit      -0.000172
 **** Fit       0.000834
 **** Fit      -0.012516
 **** Fit      -0.009036
 **** Fit      -0.006162
 **** Fit      -0.003886
 **** Fit      -0.002198
 **** Fit      -0.001094
 **** Fit      -0.000561
 **** Fit      -0.000584
 **** Fit      -0.001129
 **** Fit      -0.005692
 **** Fit      -0.003448
 **** Fit      -0.001934
 **** Fit      -0.001176
 **** Fit      -0.001250
 **** Fit      -0.002300
 **** Fit      -0.004603
 **** Fit      -0.008709
 **** Fit      -0.001443
 **** Fit      -0.001087
 **** Fit      -0.001788
 **** Fit      -0.003830
 **** Fit      -0.007744
 **** Fit      -0.014525
 **** Fit      -0.032079
 **** Fit      -0.027621
 **** Fit      -0.021885
 **** Fit      -0.016826
 **** Fit      -0.012582
 **** Fit      -0.023019
 **** Fit      -0.018318
 **** Fit      -0.016894
 **** Fit      -0.021549
 **** Fit      -0.025407
 **** Fit      -0.028065
 **** Fit      -0.029771
 **** Fit      -0.023821
 **** Fit      -0.028844
 **** Fit      -0.032798
 **** Fit      -0.035851
 **** Fit      -0.025871
 **** Fit      -0.032463
 **** Fit      -0.038502
 **** Fit      -0.014552
 **** Fit      -0.010994
 **** Fit      -0.008401
 **** Fit      -0.006714
 **** Fit      -0.005932
 **** Fit      -0.006071
 **** Fit      -0.009922
 **** Fit      -0.014329
 **** Fit      -0.011151
 **** Fit      -0.008619
 **** Fit      -0.006664
 **** Fit      -0.005310
 **** Fit      -0.004620
 **** Fit      -0.004672
 **** Fit      -0.005547
 **** Fit      -0.007305
 **** Fit      -0.010457
 **** Fit      -0.014607
 **** Fit      -0.007941
 **** Fit      -0.006483
 **** Fit      -0.005123
 **** Fit      -0.004009
 **** Fit      -0.003296
 **** Fit      -0.003123
 **** Fit      -0.003623
 **** Fit      -0.004939
 **** Fit      -0.007198
 **** Fit      -0.010500
 **** Fit      -0.015213
 **** Fit      -0.020814
 **** Fit      -0.003094
 **** Fit      -0.002961
 **** Fit      -0.002493
 **** Fit      -0.002026
 **** Fit      -0.001796
 **** Fit      -0.001990
 **** Fit      -0.002777
 **** Fit      -0.004339
 **** Fit      -0.006867
 **** Fit      -0.009960
 **** Fit      -0.015091
 **** Fit      -0.021470
 **** Fit       0.000235
 **** Fit      -0.000665
 **** Fit      -0.000849
 **** Fit      -0.000808
 **** Fit      -0.000850
 **** Fit      -0.001200
 **** Fit      -0.002050
 **** Fit      -0.003618
 **** Fit      -0.006169
 **** Fit       0.000966
 **** Fit       0.000006
 **** Fit      -0.000323
 **** Fit      -0.000490
 **** Fit      -0.000791
 **** Fit      -0.001455
 **** Fit      -0.002732
 **** Fit       0.000101
 **** Fit      -0.000740
 **** Fit      -0.001030
 **** Fit      -0.001189
 **** Fit      -0.001474
 **** Fit      -0.001189
 **** Fit      -0.002598
 **** Fit      -0.003038
 **** Fit      -0.003048
 **** Fit      -0.006281
 **** Fit      -0.007264
 **** Fit      -0.007324
 **** Fit      -0.023083
 **** Fit      -0.020764
 **** Fit      -0.019826
 **** Fit      -0.020187
 **** Fit      -0.018515
 **** Fit      -0.029854
 **** Fit      -0.024603
 **** Fit      -0.020550
 **** Fit      -0.017808
 **** Fit      -0.016374
 **** Fit      -0.016154
 **** Fit      -0.016961
 **** Fit      -0.016524
 **** Fit      -0.034193
 **** Fit      -0.027655
 **** Fit      -0.022262
 **** Fit      -0.018095
 **** Fit      -0.015182
 **** Fit      -0.013502
 **** Fit      -0.012979
 **** Fit      -0.013474
 **** Fit      -0.014767
 **** Fit      -0.015616
 **** Fit      -0.017689
 **** Fit      -0.027794
 **** Fit      -0.021726
 **** Fit      -0.016896
 **** Fit      -0.013350
 **** Fit      -0.011097
 **** Fit      -0.010101
 **** Fit      -0.010267
 **** Fit      -0.011436
 **** Fit      -0.013350
 **** Fit      -0.015601
 **** Fit      -0.018331
 **** Fit      -0.020200
 **** Fit      -0.006904
 **** Fit      -0.007910
 **** Fit      -0.009900
 **** Fit      -0.012602
 **** Fit      -0.016200
 **** Fit      -0.019973
 **** Fit      -0.022916
 **** Fit      -0.024819
 **** Fit      -0.012168
 **** Fit      -0.037186
 **** Fit      -0.037069
 **** Fit      -0.035322
 **** Fit      -0.032016
 **** Fit      -0.032765
 **** Fit      -0.027903
 **** Fit      -0.032354
 **** Fit      -0.021815
 **** Fit      -0.025894
 **** Fit      -0.023925
 **** Fit      -0.025833
 **** Fit      -0.033435
 **** Fit      -0.029621
 **** Fit      -0.030028
 **** Fit      -0.034982
 **** Fit      -0.034162
 -----------------------------------------------------------------
 Leave Link  602 at Wed Feb 26 17:57:00 2020, MaxMem=  1342177280 cpu:             169.9 elap:               8.6

 Test job not archived.
 1\1\GINC-COMPUTE-1-6\SP\RB3LYP\SVP\C54H95Ca1N15O27\PZHANG5\26-Feb-2020
 \0\\#b3lyp/svp scf=(tight,noincore,xqc) Test #IOP(5/87=12) Density=Cur
 rent Pop=(MK,readradii) iop(6/33=2) iop(6/42=6)\\loop1.cluster100\\0,1
 \C,0,40.27838,-0.14764,37.93687\C,0,40.08207,-1.62123,37.89683\O,0,40.
 70467,-2.28689,37.0841\H,0,41.09193,0.15381,37.24479\H,0,39.33323,0.35
 609,37.64827\H,0,40.55758,0.14166,38.97139\N,0,39.25227,-2.21278,38.79
 611\C,0,39.04514,-3.64642,38.85697\C,0,37.56103,-3.96159,38.99462\O,0,
 37.18945,-4.81104,39.78341\C,0,39.92199,-4.25637,39.97601\C,0,39.64952
 ,-3.75686,41.36762\O,0,40.24341,-4.35044,42.41916\O,0,38.91801,-2.8051
 ,41.55511\H,0,38.78475,-1.61408,39.49269\H,0,39.36908,-4.12285,37.9143
 3\H,0,40.995,-4.0648,39.76283\H,0,39.76249,-5.33652,39.96075\N,0,36.65
 121,-3.23522,38.27777\C,0,35.20859,-3.45898,38.37276\C,0,34.6023,-3.24
 917,36.99768\O,0,34.62806,-2.11833,36.53731\C,0,34.57012,-2.44765,39.3
 5747\C,0,35.06478,-2.70161,40.78439\C,0,34.5261,-1.70068,41.81399\C,0,
 35.15888,-1.91073,43.20649\N,0,36.61955,-1.83628,43.16013\H,0,36.98704
 ,-2.45403,37.70159\H,0,34.99936,-4.46455,38.76808\H,0,33.46262,-2.5438
 ,39.33484\H,0,34.83921,-1.41082,39.04923\H,0,36.16196,-2.60014,40.7525
 5\H,0,34.78884,-3.7328,41.0964\H,0,33.42153,-1.79919,41.90052\H,0,34.7
 5904,-0.66796,41.47639\H,0,34.86419,-2.9007,43.62177\H,0,34.77703,-1.1
 2192,43.88838\H,0,37.01247,-1.75992,44.12402\H,0,36.97189,-2.73148,42.
 76268\H,0,36.93958,-1.0175,42.59022\N,0,34.05755,-4.2449,36.23177\C,0,
 34.07106,-5.68853,36.46962\C,0,33.21539,-6.18316,37.62931\O,0,32.78407
 ,-5.36693,38.4308\C,0,35.49792,-6.20636,36.62339\C,0,36.45223,-5.74011
 ,35.60183\O,0,36.2175,-5.88947,34.41182\O,0,37.69342,-5.4654,36.01091\
 H,0,33.67498,-3.95067,35.31772\H,0,33.62863,-6.12742,35.54832\H,0,35.4
 955,-7.28255,36.54445\H,0,35.93395,-5.99519,37.61254\N,0,32.87599,-7.5
 0657,37.79356\C,0,33.18229,-8.60231,36.86493\C,0,33.70705,-9.81352,37.
 62456\O,0,32.96324,-10.2984,38.46505\H,0,32.28473,-7.74259,38.60597\H,
 0,33.78332,-8.29493,36.00574\H,0,32.22429,-8.92818,36.40882\N,0,34.940
 85,-10.38909,37.45406\C,0,36.01311,-9.93586,36.56701\C,0,37.04863,-9.1
 0647,37.33332\O,0,37.91031,-8.51491,36.69797\C,0,36.65577,-11.14778,35
 .85497\C,0,37.1215,-12.20202,36.82824\O,0,36.57733,-13.29382,36.84868\
 O,0,38.09551,-11.93447,37.71363\H,0,35.16633,-11.16911,38.09049\H,0,35
 .61333,-9.29388,35.76314\H,0,37.50846,-10.82943,35.21475\H,0,35.88816,
 -11.59909,35.18991\N,0,36.98296,-8.96536,38.69397\C,0,37.81398,-8.0447
 ,39.46278\C,0,39.31902,-8.28738,39.48675\O,0,40.00816,-7.58031,40.2019
 8\H,0,36.25252,-9.46537,39.21776\H,0,37.45267,-8.06834,40.5141\H,0,37.
 64612,-7.02856,39.06717\N,0,39.90894,-9.25381,38.74447\C,0,41.36331,-9
 .41716,38.6456\C,0,42.03089,-8.23994,37.94997\O,0,41.59118,-7.84924,36
 .87823\C,0,41.69436,-10.7383,37.90472\C,0,43.14094,-10.8257,37.40464\O
 ,0,40.85036,-10.921,36.80097\H,0,39.3073,-9.88426,38.21235\H,0,41.8073
 5,-9.51226,39.66072\H,0,41.51923,-11.54407,38.65725\H,0,40.43855,-11.8
 1852,36.89197\H,0,43.32061,-11.83674,36.98848\H,0,43.30099,-10.09472,3
 6.57846\H,0,43.86672,-10.61628,38.21573\N,0,43.17921,-7.70267,38.47847
 \C,0,43.95417,-6.65933,37.81407\C,0,45.39405,-7.07701,37.5695\O,0,46.2
 5577,-6.85602,38.40605\C,0,43.82901,-5.3032,38.55649\C,0,44.55614,-4.1
 8124,37.76517\C,0,44.34006,-5.35891,40.01703\C,0,44.1318,-2.7816,38.19
 143\H,0,43.53268,-8.07467,39.37062\H,0,43.52264,-6.48152,36.80838\H,0,
 42.73748,-5.10072,38.57149\H,0,44.33776,-4.26117,36.67818\H,0,45.65633
 ,-4.29358,37.8854\H,0,43.97483,-6.25757,40.55032\H,0,45.44896,-5.36314
 ,40.06549\H,0,43.99028,-4.47942,40.58927\H,0,44.26421,-2.62362,39.2787
 4\H,0,44.74054,-2.03076,37.64512\H,0,43.06744,-2.62898,37.9258\N,0,45.
 7266,-7.63226,36.3793\C,0,47.1064,-7.80613,35.93899\C,0,47.28375,-7.23
 58,34.52873\O,0,48.32869,-7.45025,33.93033\C,0,47.49007,-9.29744,36.02
 774\C,0,46.66941,-10.1802,35.08857\O,0,47.31175,-9.75113,37.34588\H,0,
 44.96754,-7.9122,35.73972\H,0,47.81538,-7.26973,36.61048\H,0,48.56212,
 -9.4191,35.74549\H,0,47.99868,-9.29994,37.90473\H,0,45.58625,-10.09984
 ,35.31134\H,0,46.8479,-9.89064,34.03256\H,0,46.97675,-11.23766,35.2187
 5\N,0,46.29325,-6.48654,33.94709\C,0,46.29,-5.98338,32.57936\C,0,46.04
 63,-7.09506,31.57483\O,0,46.1706,-8.26736,31.90058\C,0,47.5561,-5.1465
 6,32.20945\C,0,47.8679,-4.09187,33.27249\O,0,47.34629,-4.50679,30.9747
 \H,0,45.46484,-6.23197,34.5007\H,0,45.40196,-5.31698,32.50699\H,0,48.4
 374,-5.82057,32.11391\H,0,48.15627,-3.97853,30.75415\H,0,48.14744,-4.5
 7598,34.23\H,0,48.73317,-3.47617,32.94495\H,0,46.98869,-3.43412,33.424
 61\N,0,45.73295,-6.75535,30.29315\C,0,45.76839,-7.68458,29.18859\C,0,4
 4.55553,-7.7539,28.25871\O,0,44.6526,-8.57014,27.35061\C,0,47.00103,-7
 .28151,28.35685\C,0,48.29545,-7.64318,29.09457\C,0,49.51058,-7.20684,2
 8.28351\C,0,50.79467,-7.80603,28.8615\N,0,51.93053,-7.50942,27.99211\H
 ,0,45.63506,-5.76756,30.06712\H,0,45.90554,-8.72891,29.54904\H,0,46.95
 657,-6.18906,28.13453\H,0,47.02155,-7.82387,27.38839\H,0,48.30342,-8.7
 4979,29.208\H,0,48.35037,-7.1878,30.10516\H,0,49.57209,-6.09436,28.271
 6\H,0,49.39604,-7.57075,27.24124\H,0,50.68496,-8.91216,28.93326\H,0,50
 .97479,-7.40485,29.88358\H,0,52.0202,-6.4778,27.84869\H,0,52.80429,-7.
 87747,28.43098\H,0,51.79432,-7.98184,27.06778\N,0,43.39276,-7.03384,28
 .30465\C,0,42.91599,-5.9851,29.19604\C,0,43.67744,-4.6847,29.07447\O,0
 ,43.91981,-4.01291,30.07105\C,0,42.59202,-6.48387,30.61465\C,0,41.4299
 9,-5.67169,31.17637\C,0,41.04477,-6.16507,32.50919\O,0,39.81198,-6.631
 23,32.69729\O,0,41.81371,-6.0763,33.45137\H,0,42.72063,-7.26425,27.553
 59\H,0,41.92999,-5.72449,28.74844\H,0,43.46378,-6.4392,31.29431\H,0,42
 .24579,-7.54005,30.5632\H,0,40.54649,-5.78137,30.50448\H,0,41.67686,-4
 .59374,31.25515\N,0,44.06348,-4.26026,27.84136\C,0,44.72408,-2.99814,2
 7.60187\H,0,45.72614,-3.18443,27.16337\H,0,44.11437,-2.42226,26.87509\
 H,0,44.83758,-2.3908,28.52376\H,0,43.87619,-4.86261,27.0264\Ca,0,39.16
 063,-6.46823,34.76042\O,0,37.59732,-8.52186,33.60437\H,0,37.25957,-8.0
 4862,32.80366\H,0,37.98249,-9.36282,33.25439\O,0,40.51089,-9.2734,34.2
 7788\H,0,40.52069,-9.42747,33.3014\H,0,41.03321,-10.03087,34.63302\O,0
 ,41.2333,-5.26195,36.08106\H,0,40.65485,-4.47768,36.20794\H,0,42.14548
 ,-4.89058,36.08246\\Version=ES64L-G16RevC.01\State=1-A\HF=-5641.307148
 5\RMSD=1.739e-09\Dipole=14.6686358,7.4403169,-11.7235276\Quadrupole=12
 3.9372962,-178.8672616,54.9299654,-82.2811478,-250.1123234,74.0231773\
 PG=C01 [X(C54H95Ca1N15O27)]\\@


 DESK:  A WASTEBASKET WITH DRAWERS.
 Job cpu time:       3 days  9 hours 32 minutes 23.1 seconds.
 Elapsed time:       0 days  4 hours  6 minutes 14.4 seconds.
 File lengths (MBytes):  RWF=   2013 Int=      0 D2E=      0 Chk=    207 Scr=      2
 Normal termination of Gaussian 16 at Wed Feb 26 17:57:03 2020.
