 Entering Gaussian System, Link 0=g16
 Initial command:
 /home1/apps/gaussian/16rA.03/g16/l1.exe "/scratch/01990/pengzhi/5265968/Gau-218048.inp" -scrdir="/scratch/01990/pengzhi/5265968/"
 Entering Link 1 = /home1/apps/gaussian/16rA.03/g16/l1.exe PID=    218049.
  
 Copyright (c) 1988,1990,1992,1993,1995,1998,2003,2009,2016,
            Gaussian, Inc.  All Rights Reserved.
  
 This is part of the Gaussian(R) 16 program.  It is based on
 the Gaussian(R) 09 system (copyright 2009, Gaussian, Inc.),
 the Gaussian(R) 03 system (copyright 2003, Gaussian, Inc.),
 the Gaussian(R) 98 system (copyright 1998, Gaussian, Inc.),
 the Gaussian(R) 94 system (copyright 1995, Gaussian, Inc.),
 the Gaussian 92(TM) system (copyright 1992, Gaussian, Inc.),
 the Gaussian 90(TM) system (copyright 1990, Gaussian, Inc.),
 the Gaussian 88(TM) system (copyright 1988, Gaussian, Inc.),
 the Gaussian 86(TM) system (copyright 1986, Carnegie Mellon
 University), and the Gaussian 82(TM) system (copyright 1983,
 Carnegie Mellon University). Gaussian is a federally registered
 trademark of Gaussian, Inc.
  
 This software contains proprietary and confidential information,
 including trade secrets, belonging to Gaussian, Inc.
  
 This software is provided under written license and may be
 used, copied, transmitted, or stored only in accord with that
 written license.
  
 The following legend is applicable only to US Government
 contracts under FAR:
  
                    RESTRICTED RIGHTS LEGEND
  
 Use, reproduction and disclosure by the US Government is
 subject to restrictions as set forth in subparagraphs (a)
 and (c) of the Commercial Computer Software - Restricted
 Rights clause in FAR 52.227-19.
  
 Gaussian, Inc.
 340 Quinnipiac St., Bldg. 40, Wallingford CT 06492
  
  
 ---------------------------------------------------------------
 Warning -- This program may not be used in any manner that
 competes with the business of Gaussian, Inc. or will provide
 assistance to any competitor of Gaussian, Inc.  The licensee
 of this program is prohibited from giving any competitor of
 Gaussian, Inc. access to this program.  By using this program,
 the user acknowledges that Gaussian, Inc. is engaged in the
 business of creating and licensing software in the field of
 computational chemistry and represents and warrants to the
 licensee that it is not a competitor of Gaussian, Inc. and that
 it will not use this program in any manner prohibited above.
 ---------------------------------------------------------------
  

 Cite this work as:
 Gaussian 16, Revision A.03,
 M. J. Frisch, G. W. Trucks, H. B. Schlegel, G. E. Scuseria, 
 M. A. Robb, J. R. Cheeseman, G. Scalmani, V. Barone, 
 G. A. Petersson, H. Nakatsuji, X. Li, M. Caricato, A. V. Marenich, 
 J. Bloino, B. G. Janesko, R. Gomperts, B. Mennucci, H. P. Hratchian, 
 J. V. Ortiz, A. F. Izmaylov, J. L. Sonnenberg, D. Williams-Young, 
 F. Ding, F. Lipparini, F. Egidi, J. Goings, B. Peng, A. Petrone, 
 T. Henderson, D. Ranasinghe, V. G. Zakrzewski, J. Gao, N. Rega, 
 G. Zheng, W. Liang, M. Hada, M. Ehara, K. Toyota, R. Fukuda, 
 J. Hasegawa, M. Ishida, T. Nakajima, Y. Honda, O. Kitao, H. Nakai, 
 T. Vreven, K. Throssell, J. A. Montgomery, Jr., J. E. Peralta, 
 F. Ogliaro, M. J. Bearpark, J. J. Heyd, E. N. Brothers, K. N. Kudin, 
 V. N. Staroverov, T. A. Keith, R. Kobayashi, J. Normand, 
 K. Raghavachari, A. P. Rendell, J. C. Burant, S. S. Iyengar, 
 J. Tomasi, M. Cossi, J. M. Millam, M. Klene, C. Adamo, R. Cammi, 
 J. W. Ochterski, R. L. Martin, K. Morokuma, O. Farkas, 
 J. B. Foresman, and D. J. Fox, Gaussian, Inc., Wallingford CT, 2016.
 
 ******************************************
 Gaussian 16:  ES64L-G16RevA.03 25-Dec-2016
                20-Feb-2020 
 ******************************************
 %chk=loop1.cluster10.chk
 %nprocshared=48
 Will use up to   48 processors via shared memory.
 %mem=10GB
 %nosave
 ----------------------------------------------------------------------
 #b3lyp/svp scf=(tight,noincore) Test #IOP(5/87=12) Density=Current Pop
 =(MK,readradii) iop(6/33=2) iop(6/42=6)
 ----------------------------------------------------------------------
 1/30=1,38=1,172=1/1;
 2/12=2,17=6,18=5,40=1/2;
 3/5=18,7=101,11=2,25=1,30=1,74=-5/1,2,3;
 4//1;
 5/5=4,32=2,38=5,87=12/2;
 6/7=2,8=2,9=2,10=2,15=8,20=101,22=-1,28=1,33=2,42=6/1,2;
 99/5=1,9=1/99;
 ---------------
 loop1.cluster10
 ---------------
 Symbolic Z-matrix:
 Charge =  0 Multiplicity = 1
 C                     32.49039   78.66728   27.13825 
 C                     33.06076   77.59961   28.01929 
 O                     33.33322   76.50163   27.56203 
 H                     31.51092   78.99086   27.5486 
 H                     33.18238   79.53929   27.14945 
 H                     32.36674   78.31909   26.09412 
 N                     33.30154   77.90001   29.31738 
 C                     33.98507   77.02784   30.26535 
 C                     33.17865   75.83072   30.77645 
 O                     33.62777   75.22142   31.73931 
 C                     34.50283   77.88773   31.45318 
 C                     33.45983   78.58986   32.27996 
 O                     32.8282   79.53029   31.82385 
 O                     33.29422   78.24259   33.56928 
 H                     33.08055   78.85998   29.60673 
 H                     34.90848   76.62457   29.79625 
 H                     35.21092   78.65347   31.06844 
 H                     35.0703   77.23257   32.13643 
 N                     31.98823   75.43418   30.22411 
 C                     31.18169   74.37543   30.83085 
 C                     30.84809   73.22677   29.87467 
 O                     29.8769   73.35607   29.14125 
 C                     29.88784   75.01306   31.38876 
 C                     30.22274   75.95196   32.56031 
 C                     28.98082   76.65366   33.12381 
 C                     29.31992   77.60295   34.29036 
 N                     30.01545   78.81022   33.83965 
 H                     31.60336   75.9295   29.41024 
 H                     31.68849   73.95453   31.70132 
 H                     29.19057   74.2255   31.75046 
 H                     29.37911   75.57981   30.57433 
 H                     30.95432   76.70603   32.21638 
 H                     30.68791   75.34562   33.37054 
 H                     28.28992   75.86951   33.50039 
 H                     28.46087   77.22791   32.32667 
 H                     29.93029   77.06767   35.05293 
 H                     28.37149   77.91864   34.77449 
 H                     30.22654   79.41836   34.66372 
 H                     30.90952   78.57051   33.37204 
 H                     29.41474   79.34361   33.17051 
 N                     31.5206   72.02371   29.85705 
 C                     32.80808   71.71956   30.5038 
 C                     32.75288   71.74092   32.03822 
 O                     31.64794   71.79402   32.55856 
 C                     33.91274   72.54152   29.78625 
 C                     35.05728   71.69495   29.29305 
 O                     36.31983   72.14084   29.40531 
 O                     34.84015   70.64085   28.71364 
 H                     31.13942   71.28526   29.24162 
 H                     33.00203   70.65004   30.26648 
 H                     34.2664   73.40027   30.37141 
 H                     33.48551   72.97561   28.85768 
 N                     33.84444   71.62986   32.8637 
 C                     35.24723   71.57575   32.45072 
 C                     36.18616   71.25584   33.61857 
 O                     35.69999   70.92681   34.69423 
 H                     33.6391   71.60932   33.87473 
 H                     35.52385   72.55128   32.00918 
 H                     35.3894   70.75856   31.7144 
 N                     37.55134   71.26881   33.51007 
 C                     38.28898   71.79371   32.35767 
 C                     38.07621   73.29163   32.20016 
 O                     38.19091   73.78007   31.08706 
 C                     39.79846   71.44746   32.42838 
 C                     40.52571   71.85186   33.69243 
 O                     39.90114   72.51834   34.68259 
 O                     41.69728   71.54041   33.83191 
 H                     38.09015   70.92423   34.31591 
 H                     37.8985   71.2921   31.44447 
 H                     40.32272   71.90531   31.55979 
 H                     39.89227   70.34457   32.33525 
 N                     37.66885   74.06044   33.25252 
 C                     37.13799   75.40443   33.10722 
 C                     38.07848   76.49834   32.66479 
 O                     37.58751   77.5133   32.18986 
 H                     37.60604   73.63527   34.18808 
 H                     36.74082   75.73737   34.08936 
 H                     36.27466   75.35436   32.41409 
 N                     39.41681   76.44801   32.90466 
 C                     40.27304   77.59823   32.61484 
 C                     40.219    77.95184   31.1394 
 O                     40.47063   77.09697   30.30803 
 C                     41.72493   77.41698   33.12143 
 C                     42.50416   76.27031   32.46305 
 O                     41.73259   77.28873   34.52298 
 H                     39.81286   75.60995   33.35155 
 H                     39.8832   78.46542   33.19651 
 H                     42.27908   78.35467   32.8887 
 H                     41.45184   76.36684   34.7559 
 H                     42.6228   76.44452   31.37509 
 H                     43.51909   76.21972   32.90942 
 H                     41.99542   75.2983   32.62401 
 N                     39.82711   79.2026   30.7631 
 C                     39.65624   79.66969   29.38044 
 C                     41.01865   80.07021   28.74013 
 O                     41.14289   81.15878   28.20537 
 C                     38.58411   80.83533   29.42655 
 C                     37.99131   81.31656   28.07636 
 C                     39.09051   82.07505   30.21176 
 C                     37.03619   80.31625   27.42318 
 H                     39.52259   79.81512   31.52681 
 H                     39.2175   78.83376   28.7912 
 H                     37.71515   80.44347   30.00478 
 H                     38.78128   81.63584   27.36672 
 H                     37.35439   82.20532   28.28792 
 H                     39.4107   81.85167   31.24551 
 H                     39.9362   82.57405   29.70561 
 H                     38.26944   82.81295   30.31888 
 H                     36.5531   80.80059   26.54531 
 H                     37.56178   79.40273   27.08677 
 H                     36.22468   80.04101   28.13395 
 N                     42.09173   79.22174   28.79711 
 C                     43.43346   79.55355   28.29791 
 C                     43.52501   79.64647   26.78182 
 O                     44.57703   80.0292   26.27812 
 C                     44.4568   78.47538   28.76905 
 C                     44.14672   77.06346   28.21944 
 O                     44.47979   78.43466   30.17164 
 H                     41.98714   78.33812   29.27585 
 H                     43.72943   80.53133   28.7401 
 H                     45.46187   78.78862   28.40038 
 H                     45.26452   77.88351   30.42993 
 H                     44.96131   76.36175   28.4896 
 H                     43.19704   76.65333   28.6166 
 H                     44.06842   77.06656   27.12253 
 N                     42.49923   79.23697   25.98692 
 C                     42.55205   79.14859   24.53226 
 C                     43.53382   78.06959   24.07275 
 O                     44.35023   77.61343   24.85725 
 C                     42.82224   80.51875   23.84009 
 C                     42.03246   81.65638   24.51078 
 O                     42.45951   80.4109   22.48476 
 H                     41.62553   78.91749   26.4301 
 H                     41.53869   78.80929   24.22614 
 H                     43.90471   80.7761   23.90619 
 H                     42.51254   81.31215   22.07307 
 H                     42.41789   81.83906   25.53628 
 H                     42.16444   82.60519   23.94811 
 H                     40.95406   81.40603   24.5631 
 N                     43.50322   77.61812   22.79049 
 C                     44.49778   76.70029   22.252 
 C                     44.06006   75.31992   21.72939 
 O                     44.9748   74.62283   21.30813 
 C                     45.24564   77.45152   21.13053 
 C                     46.23302   78.4775   21.70041 
 C                     47.0205   79.10855   20.55237 
 C                     48.0378   80.14076   21.04012 
 N                     48.79871   80.66492   19.90632 
 H                     42.82506   78.0318   22.14825 
 H                     45.24211   76.42318   23.02962 
 H                     44.51375   77.94134   20.44572 
 H                     45.84479   76.74502   20.51969 
 H                     46.95001   77.94956   22.37032 
 H                     45.69938   79.25292   22.29118 
 H                     46.31444   79.60016   19.84948 
 H                     47.56422   78.30127   20.01222 
 H                     48.73853   79.67147   21.76676 
 H                     47.50503   80.97375   21.55036 
 H                     48.15187   81.11227   19.21642 
 H                     49.48309   81.37746   20.2457 
 H                     49.32172   79.88785   19.43929 
 N                     42.80925   74.76432   21.67741 
 C                     41.49999   75.27413   22.05424 
 C                     41.1224   76.52865   21.31094 
 O                     40.46335   77.40028   21.86336 
 C                     41.22597   75.16015   23.57836 
 C                     39.79021   74.65311   23.83595 
 C                     39.56762   74.23267   25.25536 
 O                     38.65096   74.84985   26.01595 
 O                     40.16105   73.26295   25.70244 
 H                     42.77827   73.81861   21.25913 
 H                     40.82405   74.5206   21.59376 
 H                     41.44633   76.10402   24.12406 
 H                     41.90451   74.3787   23.98625 
 H                     39.60599   73.73057   23.23779 
 H                     39.05725   75.42267   23.5224 
 N                     41.58662   76.6997   20.03843 
 C                     41.35728   77.88607   19.24929 
 H                     40.67441   78.60398   19.74522 
 H                     42.33354   78.38411   19.06464 
 H                     40.9265   77.58396   18.27266 
 H                     42.17457   75.96575   19.61659 
 Ca                    38.23656   73.89391   28.00899 
 O                     35.69516   74.4511   27.40568 
 H                     35.4551   75.40438   27.31631 
 H                     35.22451   73.98965   26.66907 
 O                     40.88512   74.57439   28.66203 
 H                     40.22408   75.29546   28.80604 
 H                     41.08213   74.23444   29.57015 
 O                     39.67326   71.60836   28.8064 
 H                     39.2829   70.77369   29.16675 
 H                     40.59515   71.36674   28.54026 
 O                     37.28526   71.45814   26.44465 
 H                     37.63743   70.5603   26.22511 
 H                     36.4155   71.27673   26.87602 
 O                     37.54288   76.32462   29.24047 
 H                     37.47486   75.72865   30.02268 
 H                     37.3879   77.22371   29.61627 
 
 Stoichiometry    C54H99CaN15O29
 Framework group  C1[X(C54H99CaN15O29)]
 Deg. of freedom   588
 Full point group                 C1      NOp   1
 Largest Abelian subgroup         C1      NOp   1
 Largest concise Abelian subgroup C1      NOp   1
                         Standard orientation:                         
 ---------------------------------------------------------------------
 Center     Atomic      Atomic             Coordinates (Angstroms)
 Number     Number       Type             X           Y           Z
 ---------------------------------------------------------------------
      1          6           0        2.998205   -4.607818    3.788507
      2          6           0        3.393683   -3.647603    2.710055
      3          8           0        3.200519   -3.922406    1.537003
      4          1           0        3.894241   -4.864737    4.391470
      5          1           0        2.258926   -4.105860    4.452496
      6          1           0        2.543488   -5.529238    3.375046
      7          7           0        3.929045   -2.458595    3.074608
      8          6           0        4.229497   -1.361205    2.162464
      9          6           0        5.459451   -1.549131    1.269980
     10          8           0        5.874435   -0.564326    0.671647
     11          6           0        4.343210   -0.045096    2.983045
     12          6           0        5.441495    0.014332    4.010002
     13          8           0        5.385254   -0.660256    5.026451
     14          8           0        6.445453    0.896439    3.854039
     15          1           0        4.017521   -2.294298    4.084202
     16          1           0        3.360350   -1.190991    1.490914
     17          1           0        3.377730    0.148234    3.499034
     18          1           0        4.510977    0.789904    2.281107
     19          7           0        6.113848   -2.745927    1.132615
     20          6           0        7.365889   -2.848340    0.383284
     21          6           0        7.332784   -3.891533   -0.737270
     22          8           0        7.574147   -5.054905   -0.443769
     23          6           0        8.503753   -3.159179    1.383549
     24          6           0        8.723010   -1.962430    2.324791
     25          6           0        9.808662   -2.231981    3.374069
     26          6           0       10.018987   -1.035767    4.323708
     27          7           0        8.905989   -0.868037    5.260461
     28          1           0        5.772187   -3.583088    1.620754
     29          1           0        7.631617   -1.885983   -0.058280
     30          1           0        9.452827   -3.365580    0.841406
     31          1           0        8.235259   -4.067609    1.971745
     32          1           0        7.768062   -1.723529    2.827900
     33          1           0        9.031864   -1.087164    1.709143
     34          1           0       10.761190   -2.422531    2.835156
     35          1           0        9.557134   -3.133194    3.974146
     36          1           0       10.171655   -0.102963    3.734508
     37          1           0       10.939098   -1.216328    4.918984
     38          1           0        9.092267   -0.045331    5.878474
     39          1           0        8.016469   -0.702189    4.753777
     40          1           0        8.803777   -1.721791    5.855240
     41          7           0        7.138018   -3.583278   -2.066547
     42          6           0        6.653922   -2.306400   -2.617575
     43          6           0        7.628221   -1.135861   -2.421287
     44          8           0        8.756491   -1.404591   -2.034951
     45          6           0        5.174273   -2.125349   -2.183260
     46          6           0        4.242478   -1.871787   -3.339704
     47          8           0        3.252026   -0.971771   -3.219583
     48          8           0        4.328080   -2.540607   -4.359185
     49          1           0        7.240611   -4.357200   -2.744692
     50          1           0        6.646353   -2.454967   -3.720154
     51          1           0        5.041934   -1.382888   -1.385653
     52          1           0        4.810184   -3.083221   -1.755332
     53          7           0        7.348610    0.175236   -2.718096
     54          6           0        6.064188    0.711550   -3.169680
     55          6           0        6.162973    2.181004   -3.592472
     56          8           0        7.270434    2.699523   -3.672060
     57          1           0        8.125708    0.839754   -2.579159
     58          1           0        5.330332    0.610623   -2.348460
     59          1           0        5.723346    0.159240   -4.069102
     60          7           0        5.075178    2.937988   -3.937919
     61          6           0        3.681559    2.529251   -3.741914
     62          6           0        3.348544    2.389544   -2.264271
     63          8           0        2.453107    1.625044   -1.941078
     64          6           0        2.690604    3.488082   -4.450483
     65          6           0        2.814943    4.958079   -4.112988
     66          8           0        3.710577    5.400638   -3.209284
     67          8           0        2.108852    5.765314   -4.695087
     68          1           0        5.257355    3.875251   -4.321039
     69          1           0        3.546405    1.534323   -4.221365
     70          1           0        1.647432    3.165238   -4.234875
     71          1           0        2.854731    3.388301   -5.544533
     72          7           0        4.093258    3.022528   -1.310749
     73          6           0        4.045530    2.684624    0.100909
     74          6           0        2.784852    3.001067    0.867368
     75          8           0        2.592540    2.404096    1.917795
     76          1           0        4.824684    3.684664   -1.604992
     77          1           0        4.854712    3.235416    0.625356
     78          1           0        4.278450    1.605533    0.198818
     79          7           0        1.946920    4.009760    0.504594
     80          6           0        0.827582    4.398249    1.362667
     81          6           0       -0.128131    3.235399    1.560854
     82          8           0       -0.598804    2.673121    0.587403
     83          6           0        0.102702    5.675960    0.873306
     84          6           0       -0.578549    5.551962   -0.496379
     85          8           0        0.988319    6.769590    0.895784
     86          1           0        2.146172    4.539835   -0.354609
     87          1           0        1.245295    4.680572    2.356720
     88          1           0       -0.700365    5.906806    1.609717
     89          1           0        1.583463    6.708539    0.105196
     90          1           0       -1.378616    4.785505   -0.473667
     91          1           0       -1.048919    6.523284   -0.755559
     92          1           0        0.155805    5.290197   -1.284879
     93          7           0       -0.396210    2.794870    2.823251
     94          6           0       -1.237989    1.641481    3.169980
     95          6           0       -2.751361    2.009562    3.141806
     96          8           0       -3.458455    1.750345    4.100563
     97          6           0       -0.717927    1.106497    4.567704
     98          6           0       -1.228945   -0.280292    5.038536
     99          6           0       -0.942308    2.129097    5.713934
    100          6           0       -0.652365   -1.457474    4.250300
    101          1           0        0.136464    3.252940    3.569975
    102          1           0       -1.050726    0.845155    2.415477
    103          1           0        0.387222    0.994413    4.472423
    104          1           0       -2.336437   -0.325455    5.070228
    105          1           0       -0.859118   -0.438681    6.077026
    106          1           0       -0.489658    3.119637    5.526856
    107          1           0       -2.014281    2.291568    5.925733
    108          1           0       -0.459249    1.763816    6.643100
    109          1           0       -0.957043   -2.406161    4.746065
    110          1           0       -1.009026   -1.467447    3.203100
    111          1           0        0.460257   -1.421319    4.266539
    112          7           0       -3.292762    2.650267    2.059665
    113          6           0       -4.686249    3.110963    1.985550
    114          6           0       -5.706598    1.985951    1.891849
    115          8           0       -6.900244    2.268541    1.939747
    116          6           0       -4.876554    4.028093    0.738833
    117          6           0       -4.608978    3.297935   -0.597959
    118          8           0       -4.024831    5.138695    0.841690
    119          1           0       -2.688682    2.893388    1.287075
    120          1           0       -4.894453    3.714928    2.897175
    121          1           0       -5.934238    4.382287    0.746065
    122          1           0       -4.306515    5.782370    0.139823
    123          1           0       -4.865932    3.957768   -1.450915
    124          1           0       -3.549596    2.992771   -0.709405
    125          1           0       -5.222510    2.390012   -0.690728
    126          7           0       -5.319951    0.699437    1.674670
    127          6           0       -6.225990   -0.415179    1.422954
    128          6           0       -6.954459   -0.253305    0.087891
    129          8           0       -6.962894    0.829693   -0.475216
    130          6           0       -7.212534   -0.686291    2.598824
    131          6           0       -6.513500   -0.559836    3.963792
    132          8           0       -7.742796   -1.980539    2.444325
    133          1           0       -4.312994    0.484110    1.635949
    134          1           0       -5.568090   -1.305480    1.321641
    135          1           0       -8.047188    0.052139    2.578503
    136          1           0       -8.272060   -2.201508    3.254019
    137          1           0       -6.221706    0.495564    4.149713
    138          1           0       -7.206557   -0.846880    4.783264
    139          1           0       -5.611277   -1.202386    4.002294
    140          7           0       -7.596997   -1.312001   -0.473589
    141          6           0       -8.425857   -1.191806   -1.665259
    142          6           0       -8.054910   -1.977014   -2.936474
    143          8           0       -8.810782   -1.797166   -3.883288
    144          6           0       -9.867903   -1.552646   -1.250972
    145          6           0      -10.526277   -0.418924   -0.455022
    146          6           0      -11.982407   -0.785400   -0.169144
    147          6           0      -12.714984    0.302847    0.616545
    148          7           0      -14.114380   -0.077030    0.807894
    149          1           0       -7.593406   -2.201561    0.028582
    150          1           0       -8.432005   -0.144879   -2.038642
    151          1           0       -9.870385   -2.502841   -0.666443
    152          1           0      -10.501949   -1.716566   -2.146720
    153          1           0      -10.511741    0.507488   -1.073992
    154          1           0       -9.971549   -0.225094    0.488251
    155          1           0      -12.015684   -1.733719    0.408645
    156          1           0      -12.505274   -0.935779   -1.140272
    157          1           0      -12.669093    1.268212    0.064074
    158          1           0      -12.225366    0.438495    1.606462
    159          1           0      -14.172189   -0.982075    1.329466
    160          1           0      -14.605117    0.665288    1.355077
    161          1           0      -14.585041   -0.180529   -0.121224
    162          7           0       -7.007379   -2.830953   -3.158706
    163          6           0       -5.935080   -3.303044   -2.296516
    164          6           0       -6.439349   -4.022185   -1.072817
    165          8           0       -5.839958   -3.928304   -0.009253
    166          6           0       -4.768195   -2.285766   -2.175907
    167          6           0       -3.406168   -3.007237   -2.271878
    168          6           0       -2.260820   -2.063860   -2.470019
    169          8           0       -1.274823   -1.985001   -1.563784
    170          8           0       -2.173889   -1.422131   -3.505888
    171          1           0       -6.990609   -3.250463   -4.104230
    172          1           0       -5.513910   -4.138242   -2.898018
    173          1           0       -4.847740   -1.649835   -1.266786
    174          1           0       -4.818391   -1.607891   -3.056487
    175          1           0       -3.391296   -3.660394   -3.175193
    176          1           0       -3.254536   -3.645593   -1.378975
    177          7           0       -7.609186   -4.720661   -1.160305
    178          6           0       -8.234063   -5.389630   -0.044589
    179          1           0       -7.610904   -5.366496    0.871265
    180          1           0       -9.206449   -4.894753    0.167037
    181          1           0       -8.430623   -6.443815   -0.328680
    182          1           0       -8.112003   -4.745419   -2.059681
    183         20           0        0.505828   -0.751155   -2.167660
    184          8           0        1.884749   -2.747080   -1.050513
    185          1           0        1.757505   -2.891942   -0.082431
    186          1           0        1.906817   -3.649881   -1.452389
    187          8           0       -1.249202    1.444673   -2.116747
    188          1           0       -0.858463    1.205611   -1.240490
    189          1           0       -0.750797    2.251900   -2.397886
    190          8           0        0.525536    0.583837   -4.645788
    191          1           0        1.257360    0.561844   -5.311263
    192          1           0       -0.260964    0.924620   -5.140132
    193          8           0        0.900926   -2.750353   -4.433099
    194          1           0        0.740946   -2.774342   -5.408890
    195          1           0        1.861283   -2.961924   -4.341310
    196          8           0        1.135050   -0.026716    0.475322
    197          1           0        1.821615    0.498896    0.002013
    198          1           0        1.243261    0.241353    1.418740
 ---------------------------------------------------------------------
 Rotational constants (GHZ):           0.0226070           0.0085113           0.0084369
 Standard basis: SVP (5D, 7F)
 There are  1979 symmetry adapted cartesian basis functions of A   symmetry.
 There are  1881 symmetry adapted basis functions of A   symmetry.
  1881 basis functions,  3184 primitive gaussians,  1979 cartesian basis functions
   390 alpha electrons      390 beta electrons
       nuclear repulsion energy     23357.5734750005 Hartrees.
 NAtoms=  198 NActive=  198 NUniq=  198 SFac= 1.00D+00 NAtFMM=   60 NAOKFM=T Big=T
 Integral buffers will be    131072 words long.
 Raffenetti 2 integral format.
 Two-electron integral symmetry is turned on.
 One-electron integrals computed using PRISM.
 NBasis=  1881 RedAO= T EigKep=  7.88D-04  NBF=  1881
 NBsUse=  1881 1.00D-06 EigRej= -1.00D+00 NBFU=  1881
 ExpMin= 1.98D-02 ExpMax= 3.51D+04 ExpMxC= 5.28D+03 IAcc=3 IRadAn=         5 AccDes= 0.00D+00
 Harris functional with IExCor=  402 and IRadAn=       5 diagonalized for initial guess.
 HarFok:  IExCor=  402 AccDes= 0.00D+00 IRadAn=         5 IDoV= 1 UseB2=F ITyADJ=14
 ICtDFT=  3500011 ScaDFX=  1.000000  1.000000  1.000000  1.000000
 FoFCou: FMM=F IPFlag=           0 FMFlag=      100000 FMFlg1=        2001
         NFxFlg=           0 DoJE=T BraDBF=F KetDBF=T FulRan=T
         wScrn=  0.000000 ICntrl=       500 IOpCl=  0 I1Cent=   200000004 NGrid=           0
         NMat0=    1 NMatS0=      1 NMatT0=    0 NMatD0=    1 NMtDS0=    0 NMtDT0=    0
 Petite list used in FoFCou.
 Requested convergence on RMS density matrix=1.00D-08 within 128 cycles.
 Requested convergence on MAX density matrix=1.00D-06.
 Requested convergence on             energy=1.00D-06.
 No special actions if energy rises.
 Rare condition: small coef for last iteration:  0.000D+00
 EnCoef did   100 forward-backward iterations
 EnCoef did     3 forward-backward iterations
 EnCoef did     2 forward-backward iterations
 EnCoef did     4 forward-backward iterations
 EnCoef did     2 forward-backward iterations
 EnCoef did    62 forward-backward iterations
 EnCoef did    23 forward-backward iterations
 EnCoef did    12 forward-backward iterations
 EnCoef did   100 forward-backward iterations
 EnCoef did    24 forward-backward iterations
 Rare condition: small coef for last iteration: -0.444D-15
 EnCoef did   100 forward-backward iterations
 Restarting incremental Fock formation.
 EnCoef did   100 forward-backward iterations
 EnCoef did    10 forward-backward iterations
 Rare condition: small coef for last iteration:  0.111D-14
 EnCoef did   100 forward-backward iterations
 EnCoef did   100 forward-backward iterations
 Rare condition: small coef for last iteration: -0.711D-15
 EnCoef did   100 forward-backward iterations
 EnCoef did   100 forward-backward iterations
 Rare condition: small coef for last iteration:  0.000D+00
 EnCoef did   100 forward-backward iterations
 Rare condition: small coef for last iteration:  0.000D+00
 EnCoef did   100 forward-backward iterations
 EnCoef did   100 forward-backward iterations
 Rare condition: small coef for last iteration:  0.161D-14
 EnCoef did   100 forward-backward iterations
 Rare condition: small coef for last iteration:  0.000D+00
 Rare condition: small coef for last iteration:  0.000D+00
 EnCoef did   100 forward-backward iterations
 EnCoef did   100 forward-backward iterations
 Rare condition: small coef for last iteration:  0.914D-16
 EnCoef did   100 forward-backward iterations
 Rare condition: small coef for last iteration:  0.000D+00
 Restarting incremental Fock formation.
 EnCoef did    97 forward-backward iterations
 Rare condition: small coef for last iteration:  0.666D-15
 EnCoef did   100 forward-backward iterations
 EnCoef did   100 forward-backward iterations
 Rare condition: small coef for last iteration:  0.252D-14
 EnCoef did   100 forward-backward iterations
 Rare condition: small coef for last iteration:  0.000D+00
 EnCoef did    77 forward-backward iterations
 EnCoef did   100 forward-backward iterations
 EnCoef did   100 forward-backward iterations
 Rare condition: small coef for last iteration:  0.000D+00
 EnCoef did   100 forward-backward iterations
 Restarting incremental Fock formation.
 SCF Done:  E(RB3LYP) =  -5794.06903584     A.U. after   65 cycles
            NFock= 65  Conv=0.35D-09     -V/T= 2.0089
 SCF density gives NOpUse=  1 NOpAll=  1.
 Hyperfine terms turned off by default for NAtoms > 100.

 **********************************************************************

            Population analysis using the SCF density.

 **********************************************************************

 Orbital symmetries:
 BldTbl:  Degeneracy threshold= 1.00D-02
       Occupied  (A) (A) (A) (A) (A) (A) (A) (A) (A) (A) (A) (A)
                 (A) (A) (A) (A) (A) (A) (A) (A) (A) (A) (A) (A)
                 (A) (A) (A) (A) (A) (A) (A) (A) (A) (A) (A) (A)
                 (A) (A) (A) (A) (A) (A) (A) (A) (A) (A) (A) (A)
                 (A) (A) (A) (A) (A) (A) (A) (A) (A) (A) (A) (A)
                 (A) (A) (A) (A) (A) (A) (A) (A) (A) (A) (A) (A)
                 (A) (A) (A) (A) (A) (A) (A) (A) (A) (A) (A) (A)
                 (A) (A) (A) (A) (A) (A) (A) (A) (A) (A) (A) (A)
                 (A) (A) (A) (A) (A) (A) (A) (A) (A) (A) (A) (A)
                 (A) (A) (A) (A) (A) (A) (A) (A) (A) (A) (A) (A)
                 (A) (A) (A) (A) (A) (A) (A) (A) (A) (A) (A) (A)
                 (A) (A) (A) (A) (A) (A) (A) (A) (A) (A) (A) (A)
                 (A) (A) (A) (A) (A) (A) (A) (A) (A) (A) (A) (A)
                 (A) (A) (A) (A) (A) (A) (A) (A) (A) (A) (A) (A)
                 (A) (A) (A) (A) (A) (A) (A) (A) (A) (A) (A) (A)
                 (A) (A) (A) (A) (A) (A) (A) (A) (A) (A) (A) (A)
                 (A) (A) (A) (A) (A) (A) (A) (A) (A) (A) (A) (A)
                 (A) (A) (A) (A) (A) (A) (A) (A) (A) (A) (A) (A)
                 (A) (A) (A) (A) (A) (A) (A) (A) (A) (A) (A) (A)
                 (A) (A) (A) (A) (A) (A) (A) (A) (A) (A) (A) (A)
                 (A) (A) (A) (A) (A) (A) (A) (A) (A) (A) (A) (A)
                 (A) (A) (A) (A) (A) (A) (A) (A) (A) (A) (A) (A)
                 (A) (A) (A) (A) (A) (A) (A) (A) (A) (A) (A) (A)
                 (A) (A) (A) (A) (A) (A) (A) (A) (A) (A) (A) (A)
                 (A) (A) (A) (A) (A) (A) (A) (A) (A) (A) (A) (A)
                 (A) (A) (A) (A) (A) (A) (A) (A) (A) (A) (A) (A)
                 (A) (A) (A) (A) (A) (A) (A) (A) (A) (A) (A) (A)
                 (A) (A) (A) (A) (A) (A) (A) (A) (A) (A) (A) (A)
                 (A) (A) (A) (A) (A) (A) (A) (A) (A) (A) (A) (A)
                 (A) (A) (A) (A) (A) (A) (A) (A) (A) (A) (A) (A)
                 (A) (A) (A) (A) (A) (A) (A) (A) (A) (A) (A) (A)
                 (A) (A) (A) (A) (A) (A) (A) (A) (A) (A) (A) (A)
                 (A) (A) (A) (A) (A) (A)
       Virtual   (A) (A) (A) (A) (A) (A) (A) (A) (A) (A) (A) (A)
                 (A) (A) (A) (A) (A) (A) (A) (A) (A) (A) (A) (A)
                 (A) (A) (A) (A) (A) (A) (A) (A) (A) (A) (A) (A)
                 (A) (A) (A) (A) (A) (A) (A) (A) (A) (A) (A) (A)
                 (A) (A) (A) (A) (A) (A) (A) (A) (A) (A) (A) (A)
                 (A) (A) (A) (A) (A) (A) (A) (A) (A) (A) (A) (A)
                 (A) (A) (A) (A) (A) (A) (A) (A) (A) (A) (A) (A)
                 (A) (A) (A) (A) (A) (A) (A) (A) (A) (A) (A) (A)
                 (A) (A) (A) (A) (A) (A) (A) (A) (A) (A) (A) (A)
                 (A) (A) (A) (A) (A) (A) (A) (A) (A) (A) (A) (A)
                 (A) (A) (A) (A) (A) (A) (A) (A) (A) (A) (A) (A)
                 (A) (A) (A) (A) (A) (A) (A) (A) (A) (A) (A) (A)
                 (A) (A) (A) (A) (A) (A) (A) (A) (A) (A) (A) (A)
                 (A) (A) (A) (A) (A) (A) (A) (A) (A) (A) (A) (A)
                 (A) (A) (A) (A) (A) (A) (A) (A) (A) (A) (A) (A)
                 (A) (A) (A) (A) (A) (A) (A) (A) (A) (A) (A) (A)
                 (A) (A) (A) (A) (A) (A) (A) (A) (A) (A) (A) (A)
                 (A) (A) (A) (A) (A) (A) (A) (A) (A) (A) (A) (A)
                 (A) (A) (A) (A) (A) (A) (A) (A) (A) (A) (A) (A)
                 (A) (A) (A) (A) (A) (A) (A) (A) (A) (A) (A) (A)
                 (A) (A) (A) (A) (A) (A) (A) (A) (A) (A) (A) (A)
                 (A) (A) (A) (A) (A) (A) (A) (A) (A) (A) (A) (A)
                 (A) (A) (A) (A) (A) (A) (A) (A) (A) (A) (A) (A)
                 (A) (A) (A) (A) (A) (A) (A) (A) (A) (A) (A) (A)
                 (A) (A) (A) (A) (A) (A) (A) (A) (A) (A) (A) (A)
                 (A) (A) (A) (A) (A) (A) (A) (A) (A) (A) (A) (A)
                 (A) (A) (A) (A) (A) (A) (A) (A) (A) (A) (A) (A)
                 (A) (A) (A) (A) (A) (A) (A) (A) (A) (A) (A) (A)
                 (A) (A) (A) (A) (A) (A) (A) (A) (A) (A) (A) (A)
                 (A) (A) (A) (A) (A) (A) (A) (A) (A) (A) (A) (A)
                 (A) (A) (A) (A) (A) (A) (A) (A) (A) (A) (A) (A)
                 (A) (A) (A) (A) (A) (A) (A) (A) (A) (A) (A) (A)
                 (A) (A) (A) (A) (A) (A) (A) (A) (A) (A) (A) (A)
                 (A) (A) (A) (A) (A) (A) (A) (A) (A) (A) (A) (A)
                 (A) (A) (A) (A) (A) (A) (A) (A) (A) (A) (A) (A)
                 (A) (A) (A) (A) (A) (A) (A) (A) (A) (A) (A) (A)
                 (A) (A) (A) (A) (A) (A) (A) (A) (A) (A) (A) (A)
                 (A) (A) (A) (A) (A) (A) (A) (A) (A) (A) (A) (A)
                 (A) (A) (A) (A) (A) (A) (A) (A) (A) (A) (A) (A)
                 (A) (A) (A) (A) (A) (A) (A) (A) (A) (A) (A) (A)
                 (A) (A) (A) (A) (A) (A) (A) (A) (A) (A) (A) (A)
                 (A) (A) (A) (A) (A) (A) (A) (A) (A) (A) (A) (A)
                 (A) (A) (A) (A) (A) (A) (A) (A) (A) (A) (A) (A)
                 (A) (A) (A) (A) (A) (A) (A) (A) (A) (A) (A) (A)
                 (A) (A) (A) (A) (A) (A) (A) (A) (A) (A) (A) (A)
                 (A) (A) (A) (A) (A) (A) (A) (A) (A) (A) (A) (A)
                 (A) (A) (A) (A) (A) (A) (A) (A) (A) (A) (A) (A)
                 (A) (A) (A) (A) (A) (A) (A) (A) (A) (A) (A) (A)
                 (A) (A) (A) (A) (A) (A) (A) (A) (A) (A) (A) (A)
                 (A) (A) (A) (A) (A) (A) (A) (A) (A) (A) (A) (A)
                 (A) (A) (A) (A) (A) (A) (A) (A) (A) (A) (A) (A)
                 (A) (A) (A) (A) (A) (A) (A) (A) (A) (A) (A) (A)
                 (A) (A) (A) (A) (A) (A) (A) (A) (A) (A) (A) (A)
                 (A) (A) (A) (A) (A) (A) (A) (A) (A) (A) (A) (A)
                 (A) (A) (A) (A) (A) (A) (A) (A) (A) (A) (A) (A)
                 (A) (A) (A) (A) (A) (A) (A) (A) (A) (A) (A) (A)
                 (A) (A) (A) (A) (A) (A) (A) (A) (A) (A) (A) (A)
                 (A) (A) (A) (A) (A) (A) (A) (A) (A) (A) (A) (A)
                 (A) (A) (A) (A) (A) (A) (A) (A) (A) (A) (A) (A)
                 (A) (A) (A) (A) (A) (A) (A) (A) (A) (A) (A) (A)
                 (A) (A) (A) (A) (A) (A) (A) (A) (A) (A) (A) (A)
                 (A) (A) (A) (A) (A) (A) (A) (A) (A) (A) (A) (A)
                 (A) (A) (A) (A) (A) (A) (A) (A) (A) (A) (A) (A)
                 (A) (A) (A) (A) (A) (A) (A) (A) (A) (A) (A) (A)
                 (A) (A) (A) (A) (A) (A) (A) (A) (A) (A) (A) (A)
                 (A) (A) (A) (A) (A) (A) (A) (A) (A) (A) (A) (A)
                 (A) (A) (A) (A) (A) (A) (A) (A) (A) (A) (A) (A)
                 (A) (A) (A) (A) (A) (A) (A) (A) (A) (A) (A) (A)
                 (A) (A) (A) (A) (A) (A) (A) (A) (A) (A) (A) (A)
                 (A) (A) (A) (A) (A) (A) (A) (A) (A) (A) (A) (A)
                 (A) (A) (A) (A) (A) (A) (A) (A) (A) (A) (A) (A)
                 (A) (A) (A) (A) (A) (A) (A) (A) (A) (A) (A) (A)
                 (A) (A) (A) (A) (A) (A) (A) (A) (A) (A) (A) (A)
                 (A) (A) (A) (A) (A) (A) (A) (A) (A) (A) (A) (A)
                 (A) (A) (A) (A) (A) (A) (A) (A) (A) (A) (A) (A)
                 (A) (A) (A) (A) (A) (A) (A) (A) (A) (A) (A) (A)
                 (A) (A) (A) (A) (A) (A) (A) (A) (A) (A) (A) (A)
                 (A) (A) (A) (A) (A) (A) (A) (A) (A) (A) (A) (A)
                 (A) (A) (A) (A) (A) (A) (A) (A) (A) (A) (A) (A)
                 (A) (A) (A) (A) (A) (A) (A) (A) (A) (A) (A) (A)
                 (A) (A) (A) (A) (A) (A) (A) (A) (A) (A) (A) (A)
                 (A) (A) (A) (A) (A) (A) (A) (A) (A) (A) (A) (A)
                 (A) (A) (A) (A) (A) (A) (A) (A) (A) (A) (A) (A)
                 (A) (A) (A) (A) (A) (A) (A) (A) (A) (A) (A) (A)
                 (A) (A) (A) (A) (A) (A) (A) (A) (A) (A) (A) (A)
                 (A) (A) (A) (A) (A) (A) (A) (A) (A) (A) (A) (A)
                 (A) (A) (A) (A) (A) (A) (A) (A) (A) (A) (A) (A)
                 (A) (A) (A) (A) (A) (A) (A) (A) (A) (A) (A) (A)
                 (A) (A) (A) (A) (A) (A) (A) (A) (A) (A) (A) (A)
                 (A) (A) (A) (A) (A) (A) (A) (A) (A) (A) (A) (A)
                 (A) (A) (A) (A) (A) (A) (A) (A) (A) (A) (A) (A)
                 (A) (A) (A) (A) (A) (A) (A) (A) (A) (A) (A) (A)
                 (A) (A) (A) (A) (A) (A) (A) (A) (A) (A) (A) (A)
                 (A) (A) (A) (A) (A) (A) (A) (A) (A) (A) (A) (A)
                 (A) (A) (A) (A) (A) (A) (A) (A) (A) (A) (A) (A)
                 (A) (A) (A) (A) (A) (A) (A) (A) (A) (A) (A) (A)
                 (A) (A) (A) (A) (A) (A) (A) (A) (A) (A) (A) (A)
                 (A) (A) (A) (A) (A) (A) (A) (A) (A) (A) (A) (A)
                 (A) (A) (A) (A) (A) (A) (A) (A) (A) (A) (A) (A)
                 (A) (A) (A) (A) (A) (A) (A) (A) (A) (A) (A) (A)
                 (A) (A) (A) (A) (A) (A) (A) (A) (A) (A) (A) (A)
                 (A) (A) (A) (A) (A) (A) (A) (A) (A) (A) (A) (A)
                 (A) (A) (A) (A) (A) (A) (A) (A) (A) (A) (A) (A)
                 (A) (A) (A) (A) (A) (A) (A) (A) (A) (A) (A) (A)
                 (A) (A) (A) (A) (A) (A) (A) (A) (A) (A) (A) (A)
                 (A) (A) (A) (A) (A) (A) (A) (A) (A) (A) (A) (A)
                 (A) (A) (A) (A) (A) (A) (A) (A) (A) (A) (A) (A)
                 (A) (A) (A) (A) (A) (A) (A) (A) (A) (A) (A) (A)
                 (A) (A) (A) (A) (A) (A) (A) (A) (A) (A) (A) (A)
                 (A) (A) (A) (A) (A) (A) (A) (A) (A) (A) (A) (A)
                 (A) (A) (A) (A) (A) (A) (A) (A) (A) (A) (A) (A)
                 (A) (A) (A) (A) (A) (A) (A) (A) (A) (A) (A) (A)
                 (A) (A) (A) (A) (A) (A) (A) (A) (A) (A) (A) (A)
                 (A) (A) (A) (A) (A) (A) (A) (A) (A) (A) (A) (A)
                 (A) (A) (A) (A) (A) (A) (A) (A) (A) (A) (A) (A)
                 (A) (A) (A) (A) (A) (A) (A) (A) (A) (A) (A) (A)
                 (A) (A) (A) (A) (A) (A) (A) (A) (A) (A) (A) (A)
                 (A) (A) (A) (A) (A) (A) (A) (A) (A) (A) (A) (A)
                 (A) (A) (A) (A) (A) (A) (A) (A) (A) (A) (A) (A)
                 (A) (A) (A) (A) (A) (A) (A) (A) (A) (A) (A) (A)
                 (A) (A) (A) (A) (A) (A) (A) (A) (A) (A) (A) (A)
                 (A) (A) (A) (A) (A) (A) (A) (A) (A) (A) (A) (A)
                 (A) (A) (A) (A) (A) (A) (A) (A) (A) (A) (A) (A)
                 (A) (A) (A) (A) (A) (A) (A) (A) (A) (A) (A) (A)
                 (A) (A) (A)
 The electronic state is 1-A.
 Alpha  occ. eigenvalues -- -145.34780 -19.15967 -19.14072 -19.13154 -19.13138
 Alpha  occ. eigenvalues --  -19.12928 -19.11637 -19.11518 -19.11448 -19.11118
 Alpha  occ. eigenvalues --  -19.10590 -19.10183 -19.09960 -19.09142 -19.09024
 Alpha  occ. eigenvalues --  -19.08396 -19.08390 -19.07295 -19.06227 -19.04881
 Alpha  occ. eigenvalues --  -19.04704 -19.03954 -19.03181 -19.02180 -19.01536
 Alpha  occ. eigenvalues --  -19.00243 -18.99169 -18.99010 -18.98566 -18.98523
 Alpha  occ. eigenvalues --  -15.40591 -14.58985 -14.49129 -14.38063 -14.37405
 Alpha  occ. eigenvalues --  -14.36962 -14.35634 -14.35426 -14.34779 -14.34297
 Alpha  occ. eigenvalues --  -14.32413 -14.32382 -14.32309 -14.30220 -14.29932
 Alpha  occ. eigenvalues --  -14.29718 -12.54225 -12.54178 -12.54106 -10.36038
 Alpha  occ. eigenvalues --  -10.30744 -10.30369 -10.29519 -10.29313 -10.28576
 Alpha  occ. eigenvalues --  -10.28348 -10.28242 -10.28194 -10.26961 -10.26580
 Alpha  occ. eigenvalues --  -10.26111 -10.25792 -10.25784 -10.25553 -10.25273
 Alpha  occ. eigenvalues --  -10.25139 -10.25009 -10.24780 -10.24159 -10.23996
 Alpha  occ. eigenvalues --  -10.23988 -10.23922 -10.23857 -10.23405 -10.23395
 Alpha  occ. eigenvalues --  -10.23304 -10.22615 -10.22466 -10.21961 -10.20742
 Alpha  occ. eigenvalues --  -10.20685 -10.19960 -10.19769 -10.19286 -10.19283
 Alpha  occ. eigenvalues --  -10.19140 -10.19049 -10.18693 -10.18543 -10.18480
 Alpha  occ. eigenvalues --  -10.18283 -10.18158 -10.18143 -10.17611 -10.17359
 Alpha  occ. eigenvalues --  -10.17109 -10.16945 -10.16355 -10.16309 -10.15831
 Alpha  occ. eigenvalues --  -10.14402 -10.13734 -10.12262  -1.77554  -1.12965
 Alpha  occ. eigenvalues --   -1.05335  -1.05011  -1.04962  -1.04801  -1.04390
 Alpha  occ. eigenvalues --   -1.04249  -1.03637  -1.03433  -1.03344  -1.02959
 Alpha  occ. eigenvalues --   -1.01839  -1.01569  -1.00974  -1.00731  -1.00598
 Alpha  occ. eigenvalues --   -0.99578  -0.99262  -0.98457  -0.97967  -0.97717
 Alpha  occ. eigenvalues --   -0.97593  -0.97031  -0.96971  -0.96830  -0.95712
 Alpha  occ. eigenvalues --   -0.94709  -0.94137  -0.93624  -0.93344  -0.93303
 Alpha  occ. eigenvalues --   -0.92583  -0.92327  -0.91685  -0.91354  -0.90181
 Alpha  occ. eigenvalues --   -0.89766  -0.89251  -0.88824  -0.88296  -0.87541
 Alpha  occ. eigenvalues --   -0.85921  -0.85491  -0.85258  -0.84903  -0.82577
 Alpha  occ. eigenvalues --   -0.81696  -0.81273  -0.81184  -0.80658  -0.79434
 Alpha  occ. eigenvalues --   -0.78481  -0.78006  -0.76802  -0.76036  -0.75537
 Alpha  occ. eigenvalues --   -0.75443  -0.74271  -0.73910  -0.73189  -0.72499
 Alpha  occ. eigenvalues --   -0.72264  -0.72107  -0.71394  -0.70513  -0.70361
 Alpha  occ. eigenvalues --   -0.70026  -0.69943  -0.69582  -0.69545  -0.68713
 Alpha  occ. eigenvalues --   -0.68213  -0.67177  -0.66970  -0.64648  -0.64592
 Alpha  occ. eigenvalues --   -0.62925  -0.62333  -0.62106  -0.61780  -0.61539
 Alpha  occ. eigenvalues --   -0.61357  -0.61344  -0.61292  -0.61253  -0.61118
 Alpha  occ. eigenvalues --   -0.60725  -0.60257  -0.59391  -0.59280  -0.58854
 Alpha  occ. eigenvalues --   -0.57917  -0.57633  -0.57407  -0.57278  -0.57062
 Alpha  occ. eigenvalues --   -0.56129  -0.55741  -0.55469  -0.55107  -0.54951
 Alpha  occ. eigenvalues --   -0.54470  -0.53953  -0.53908  -0.53515  -0.52979
 Alpha  occ. eigenvalues --   -0.52756  -0.52224  -0.52078  -0.51962  -0.51719
 Alpha  occ. eigenvalues --   -0.51493  -0.51209  -0.50743  -0.50566  -0.50401
 Alpha  occ. eigenvalues --   -0.50246  -0.49959  -0.49566  -0.49448  -0.49177
 Alpha  occ. eigenvalues --   -0.49050  -0.48851  -0.48556  -0.48452  -0.48166
 Alpha  occ. eigenvalues --   -0.47651  -0.47524  -0.47266  -0.47057  -0.46895
 Alpha  occ. eigenvalues --   -0.46871  -0.46058  -0.45925  -0.45898  -0.45708
 Alpha  occ. eigenvalues --   -0.45617  -0.45560  -0.45466  -0.45440  -0.45044
 Alpha  occ. eigenvalues --   -0.44710  -0.44659  -0.44589  -0.44521  -0.44181
 Alpha  occ. eigenvalues --   -0.44019  -0.43820  -0.43783  -0.43339  -0.43110
 Alpha  occ. eigenvalues --   -0.43053  -0.42837  -0.42544  -0.42423  -0.42243
 Alpha  occ. eigenvalues --   -0.42054  -0.42007  -0.41971  -0.41815  -0.41691
 Alpha  occ. eigenvalues --   -0.41655  -0.41521  -0.41340  -0.41155  -0.40963
 Alpha  occ. eigenvalues --   -0.40938  -0.40860  -0.40701  -0.40482  -0.40420
 Alpha  occ. eigenvalues --   -0.40150  -0.39996  -0.39867  -0.39791  -0.39756
 Alpha  occ. eigenvalues --   -0.39470  -0.39313  -0.39244  -0.38929  -0.38902
 Alpha  occ. eigenvalues --   -0.38812  -0.38766  -0.38545  -0.38424  -0.38346
 Alpha  occ. eigenvalues --   -0.38179  -0.37991  -0.37821  -0.37739  -0.37640
 Alpha  occ. eigenvalues --   -0.37579  -0.37418  -0.37312  -0.36980  -0.36970
 Alpha  occ. eigenvalues --   -0.36763  -0.36673  -0.36529  -0.36338  -0.36144
 Alpha  occ. eigenvalues --   -0.35923  -0.35617  -0.35581  -0.35525  -0.35453
 Alpha  occ. eigenvalues --   -0.35441  -0.35394  -0.35158  -0.35071  -0.34922
 Alpha  occ. eigenvalues --   -0.34823  -0.34594  -0.34490  -0.34321  -0.34224
 Alpha  occ. eigenvalues --   -0.34160  -0.34095  -0.33514  -0.33152  -0.33020
 Alpha  occ. eigenvalues --   -0.32894  -0.32805  -0.32764  -0.32449  -0.32322
 Alpha  occ. eigenvalues --   -0.32134  -0.32070  -0.31992  -0.31778  -0.31501
 Alpha  occ. eigenvalues --   -0.31215  -0.31022  -0.30862  -0.30598  -0.30447
 Alpha  occ. eigenvalues --   -0.30037  -0.29734  -0.29725  -0.29392  -0.29120
 Alpha  occ. eigenvalues --   -0.29103  -0.28955  -0.28631  -0.28371  -0.28123
 Alpha  occ. eigenvalues --   -0.27780  -0.27743  -0.27666  -0.27598  -0.27375
 Alpha  occ. eigenvalues --   -0.27044  -0.26503  -0.26232  -0.25975  -0.25936
 Alpha  occ. eigenvalues --   -0.25885  -0.25410  -0.25201  -0.25057  -0.24769
 Alpha  occ. eigenvalues --   -0.24272  -0.23963  -0.23825  -0.23472  -0.22779
 Alpha  occ. eigenvalues --   -0.22534  -0.21724  -0.21386  -0.20879  -0.20618
 Alpha  occ. eigenvalues --   -0.20484  -0.20260  -0.20139  -0.19835  -0.19559
 Alpha  occ. eigenvalues --   -0.18220  -0.18204  -0.16989  -0.16855  -0.16582
 Alpha  occ. eigenvalues --   -0.16012  -0.15459  -0.14522  -0.13910  -0.12908
 Alpha virt. eigenvalues --   -0.12351  -0.06382  -0.06182  -0.02880  -0.02446
 Alpha virt. eigenvalues --   -0.01041  -0.00974  -0.00188   0.00217   0.00502
 Alpha virt. eigenvalues --    0.01073   0.01141   0.01797   0.01920   0.02124
 Alpha virt. eigenvalues --    0.02290   0.02328   0.02783   0.03388   0.03655
 Alpha virt. eigenvalues --    0.03718   0.03891   0.04047   0.04226   0.04542
 Alpha virt. eigenvalues --    0.04772   0.05073   0.05388   0.05597   0.05722
 Alpha virt. eigenvalues --    0.05842   0.05978   0.06158   0.06522   0.06746
 Alpha virt. eigenvalues --    0.06927   0.07058   0.07352   0.07544   0.07728
 Alpha virt. eigenvalues --    0.07862   0.08019   0.08185   0.08660   0.08718
 Alpha virt. eigenvalues --    0.09056   0.09418   0.09633   0.09743   0.09878
 Alpha virt. eigenvalues --    0.10134   0.10244   0.10442   0.10495   0.10552
 Alpha virt. eigenvalues --    0.10644   0.10885   0.10970   0.11057   0.11174
 Alpha virt. eigenvalues --    0.11361   0.11414   0.11442   0.11681   0.11778
 Alpha virt. eigenvalues --    0.11846   0.12242   0.12482   0.12665   0.12789
 Alpha virt. eigenvalues --    0.13036   0.13138   0.13306   0.13411   0.13453
 Alpha virt. eigenvalues --    0.13653   0.13763   0.13886   0.14063   0.14172
 Alpha virt. eigenvalues --    0.14303   0.14458   0.14520   0.14715   0.14782
 Alpha virt. eigenvalues --    0.14879   0.15113   0.15230   0.15338   0.15439
 Alpha virt. eigenvalues --    0.15712   0.15762   0.15816   0.16139   0.16313
 Alpha virt. eigenvalues --    0.16572   0.16639   0.16769   0.17086   0.17204
 Alpha virt. eigenvalues --    0.17465   0.17518   0.17865   0.18083   0.18116
 Alpha virt. eigenvalues --    0.18170   0.18232   0.18439   0.18473   0.18933
 Alpha virt. eigenvalues --    0.19014   0.19093   0.19278   0.19299   0.19664
 Alpha virt. eigenvalues --    0.19827   0.20084   0.20205   0.20394   0.20417
 Alpha virt. eigenvalues --    0.20558   0.20625   0.20699   0.20808   0.20941
 Alpha virt. eigenvalues --    0.21065   0.21310   0.21447   0.21632   0.21909
 Alpha virt. eigenvalues --    0.21989   0.22017   0.22226   0.22341   0.22585
 Alpha virt. eigenvalues --    0.22637   0.22980   0.23183   0.23591   0.23725
 Alpha virt. eigenvalues --    0.23815   0.24072   0.24295   0.24623   0.24797
 Alpha virt. eigenvalues --    0.24976   0.25320   0.25507   0.25734   0.25765
 Alpha virt. eigenvalues --    0.25914   0.25973   0.26289   0.26394   0.26662
 Alpha virt. eigenvalues --    0.27060   0.27368   0.27472   0.27654   0.27822
 Alpha virt. eigenvalues --    0.27916   0.27999   0.28234   0.28473   0.28552
 Alpha virt. eigenvalues --    0.28631   0.28669   0.29212   0.29269   0.29601
 Alpha virt. eigenvalues --    0.29734   0.30003   0.30192   0.30803   0.30909
 Alpha virt. eigenvalues --    0.31165   0.31392   0.32123   0.32236   0.32583
 Alpha virt. eigenvalues --    0.32808   0.33475   0.33844   0.34034   0.34082
 Alpha virt. eigenvalues --    0.34275   0.34322   0.34364   0.34566   0.34788
 Alpha virt. eigenvalues --    0.35412   0.35656   0.35742   0.35981   0.36153
 Alpha virt. eigenvalues --    0.36582   0.37263   0.37392   0.37547   0.37854
 Alpha virt. eigenvalues --    0.38438   0.38469   0.39056   0.39349   0.39458
 Alpha virt. eigenvalues --    0.39585   0.39768   0.39946   0.40283   0.40300
 Alpha virt. eigenvalues --    0.40537   0.40807   0.41017   0.41173   0.41401
 Alpha virt. eigenvalues --    0.41711   0.41818   0.42120   0.42438   0.42506
 Alpha virt. eigenvalues --    0.42771   0.43282   0.43350   0.43480   0.43975
 Alpha virt. eigenvalues --    0.44133   0.44329   0.44410   0.44551   0.44605
 Alpha virt. eigenvalues --    0.44772   0.44872   0.45014   0.45123   0.45589
 Alpha virt. eigenvalues --    0.46141   0.46328   0.46560   0.46668   0.46841
 Alpha virt. eigenvalues --    0.47007   0.47077   0.47269   0.47651   0.47791
 Alpha virt. eigenvalues --    0.47898   0.48165   0.48220   0.48299   0.48753
 Alpha virt. eigenvalues --    0.49077   0.49226   0.49362   0.49843   0.50077
 Alpha virt. eigenvalues --    0.50302   0.50711   0.50788   0.50871   0.51029
 Alpha virt. eigenvalues --    0.51444   0.51636   0.51806   0.52068   0.52276
 Alpha virt. eigenvalues --    0.52466   0.52494   0.52621   0.52756   0.52960
 Alpha virt. eigenvalues --    0.53071   0.53317   0.53402   0.53618   0.53780
 Alpha virt. eigenvalues --    0.53949   0.54104   0.54385   0.54487   0.54645
 Alpha virt. eigenvalues --    0.54764   0.55015   0.55091   0.55359   0.55479
 Alpha virt. eigenvalues --    0.55762   0.55989   0.56303   0.56482   0.56564
 Alpha virt. eigenvalues --    0.56666   0.56878   0.57123   0.57252   0.57420
 Alpha virt. eigenvalues --    0.57844   0.57893   0.57995   0.58164   0.58318
 Alpha virt. eigenvalues --    0.58412   0.58578   0.58668   0.58775   0.58854
 Alpha virt. eigenvalues --    0.58898   0.59170   0.59253   0.59472   0.59528
 Alpha virt. eigenvalues --    0.59604   0.59893   0.60040   0.60136   0.60209
 Alpha virt. eigenvalues --    0.60306   0.60554   0.60637   0.60781   0.60968
 Alpha virt. eigenvalues --    0.61011   0.61156   0.61257   0.61361   0.61398
 Alpha virt. eigenvalues --    0.61583   0.61694   0.61883   0.62090   0.62258
 Alpha virt. eigenvalues --    0.62338   0.62370   0.62531   0.62602   0.62722
 Alpha virt. eigenvalues --    0.62809   0.62962   0.63087   0.63167   0.63347
 Alpha virt. eigenvalues --    0.63450   0.63504   0.63709   0.63797   0.63880
 Alpha virt. eigenvalues --    0.63984   0.64125   0.64373   0.64459   0.64523
 Alpha virt. eigenvalues --    0.64677   0.64749   0.64819   0.64886   0.65029
 Alpha virt. eigenvalues --    0.65222   0.65319   0.65434   0.65510   0.65618
 Alpha virt. eigenvalues --    0.65719   0.65888   0.66007   0.66073   0.66402
 Alpha virt. eigenvalues --    0.66442   0.66606   0.66671   0.66813   0.66968
 Alpha virt. eigenvalues --    0.67010   0.67131   0.67179   0.67222   0.67428
 Alpha virt. eigenvalues --    0.67513   0.67554   0.67669   0.67737   0.67825
 Alpha virt. eigenvalues --    0.67908   0.68220   0.68239   0.68285   0.68376
 Alpha virt. eigenvalues --    0.68633   0.68657   0.68741   0.68778   0.68886
 Alpha virt. eigenvalues --    0.69043   0.69231   0.69389   0.69444   0.69541
 Alpha virt. eigenvalues --    0.69574   0.69715   0.69803   0.69916   0.70076
 Alpha virt. eigenvalues --    0.70103   0.70376   0.70502   0.70601   0.70730
 Alpha virt. eigenvalues --    0.70844   0.70977   0.71147   0.71222   0.71538
 Alpha virt. eigenvalues --    0.71696   0.71791   0.71853   0.72014   0.72281
 Alpha virt. eigenvalues --    0.72360   0.72432   0.72530   0.72724   0.72818
 Alpha virt. eigenvalues --    0.73027   0.73160   0.73324   0.73500   0.73602
 Alpha virt. eigenvalues --    0.73834   0.73904   0.74062   0.74153   0.74323
 Alpha virt. eigenvalues --    0.74433   0.74577   0.74619   0.74710   0.74943
 Alpha virt. eigenvalues --    0.75072   0.75271   0.75488   0.75666   0.76039
 Alpha virt. eigenvalues --    0.76097   0.76408   0.76571   0.76631   0.76881
 Alpha virt. eigenvalues --    0.77160   0.77268   0.77433   0.77573   0.77733
 Alpha virt. eigenvalues --    0.77792   0.78330   0.78558   0.78896   0.78951
 Alpha virt. eigenvalues --    0.79486   0.79571   0.79777   0.80012   0.80177
 Alpha virt. eigenvalues --    0.80387   0.80760   0.80882   0.81241   0.81486
 Alpha virt. eigenvalues --    0.81654   0.81887   0.82344   0.82695   0.82822
 Alpha virt. eigenvalues --    0.83129   0.83483   0.83591   0.83713   0.84078
 Alpha virt. eigenvalues --    0.84267   0.84354   0.84569   0.85075   0.85112
 Alpha virt. eigenvalues --    0.85274   0.85558   0.86062   0.86490   0.87030
 Alpha virt. eigenvalues --    0.87188   0.87651   0.87959   0.88095   0.88235
 Alpha virt. eigenvalues --    0.88535   0.88881   0.89265   0.89760   0.89829
 Alpha virt. eigenvalues --    0.90209   0.90652   0.90738   0.90976   0.91111
 Alpha virt. eigenvalues --    0.91355   0.91779   0.91820   0.92436   0.92706
 Alpha virt. eigenvalues --    0.92759   0.92928   0.93217   0.93377   0.93818
 Alpha virt. eigenvalues --    0.93992   0.94140   0.94525   0.94899   0.95024
 Alpha virt. eigenvalues --    0.95290   0.95565   0.95611   0.95803   0.96124
 Alpha virt. eigenvalues --    0.96226   0.96550   0.96745   0.97046   0.97200
 Alpha virt. eigenvalues --    0.97359   0.97573   0.97869   0.98206   0.98514
 Alpha virt. eigenvalues --    0.98717   0.99282   0.99318   0.99507   0.99669
 Alpha virt. eigenvalues --    0.99968   1.00088   1.00370   1.00710   1.01319
 Alpha virt. eigenvalues --    1.01574   1.01843   1.02020   1.02265   1.02286
 Alpha virt. eigenvalues --    1.02650   1.02704   1.02931   1.03093   1.03760
 Alpha virt. eigenvalues --    1.03967   1.04183   1.04476   1.04651   1.04909
 Alpha virt. eigenvalues --    1.05130   1.05424   1.05550   1.05741   1.05953
 Alpha virt. eigenvalues --    1.06142   1.06201   1.06549   1.06661   1.06750
 Alpha virt. eigenvalues --    1.07033   1.07224   1.07689   1.07848   1.07958
 Alpha virt. eigenvalues --    1.08063   1.08251   1.08683   1.08909   1.09119
 Alpha virt. eigenvalues --    1.09170   1.09376   1.09591   1.09982   1.10171
 Alpha virt. eigenvalues --    1.10383   1.10784   1.10849   1.11368   1.11398
 Alpha virt. eigenvalues --    1.11763   1.11861   1.12217   1.12337   1.12527
 Alpha virt. eigenvalues --    1.12773   1.12946   1.13214   1.13521   1.13548
 Alpha virt. eigenvalues --    1.13769   1.13950   1.14149   1.14462   1.14562
 Alpha virt. eigenvalues --    1.15101   1.15279   1.15392   1.15675   1.15745
 Alpha virt. eigenvalues --    1.16034   1.16270   1.16576   1.16717   1.16833
 Alpha virt. eigenvalues --    1.16971   1.17506   1.17643   1.17794   1.18066
 Alpha virt. eigenvalues --    1.18374   1.18547   1.19016   1.19232   1.19331
 Alpha virt. eigenvalues --    1.19404   1.19657   1.20006   1.20334   1.20674
 Alpha virt. eigenvalues --    1.20817   1.21206   1.21359   1.21888   1.22106
 Alpha virt. eigenvalues --    1.22289   1.22538   1.23010   1.23178   1.23273
 Alpha virt. eigenvalues --    1.23471   1.23776   1.23936   1.24022   1.24366
 Alpha virt. eigenvalues --    1.24427   1.24649   1.24845   1.24997   1.25281
 Alpha virt. eigenvalues --    1.25365   1.25684   1.25812   1.25933   1.26154
 Alpha virt. eigenvalues --    1.26436   1.26615   1.26739   1.26819   1.27074
 Alpha virt. eigenvalues --    1.27389   1.27511   1.27894   1.27927   1.28130
 Alpha virt. eigenvalues --    1.28754   1.29084   1.29378   1.29488   1.29753
 Alpha virt. eigenvalues --    1.29872   1.30050   1.30289   1.30570   1.30788
 Alpha virt. eigenvalues --    1.31184   1.31383   1.31684   1.31939   1.32231
 Alpha virt. eigenvalues --    1.32447   1.33070   1.33201   1.33762   1.33846
 Alpha virt. eigenvalues --    1.34080   1.34257   1.34484   1.34639   1.34914
 Alpha virt. eigenvalues --    1.34941   1.35170   1.35701   1.36139   1.36301
 Alpha virt. eigenvalues --    1.36498   1.36623   1.36873   1.37053   1.37396
 Alpha virt. eigenvalues --    1.37592   1.37775   1.38163   1.38485   1.38721
 Alpha virt. eigenvalues --    1.39088   1.39444   1.39688   1.39800   1.40182
 Alpha virt. eigenvalues --    1.40529   1.40747   1.40884   1.41125   1.41279
 Alpha virt. eigenvalues --    1.41495   1.41629   1.41755   1.41854   1.42071
 Alpha virt. eigenvalues --    1.42362   1.42732   1.43014   1.43445   1.43611
 Alpha virt. eigenvalues --    1.43957   1.44230   1.44423   1.44702   1.44872
 Alpha virt. eigenvalues --    1.45213   1.45623   1.45894   1.46245   1.46604
 Alpha virt. eigenvalues --    1.47000   1.47161   1.47455   1.47684   1.47771
 Alpha virt. eigenvalues --    1.47815   1.47986   1.48308   1.48345   1.48999
 Alpha virt. eigenvalues --    1.49171   1.49596   1.49883   1.50083   1.50422
 Alpha virt. eigenvalues --    1.50527   1.50597   1.50996   1.51242   1.51495
 Alpha virt. eigenvalues --    1.51657   1.51993   1.52299   1.52568   1.52942
 Alpha virt. eigenvalues --    1.53027   1.53229   1.53594   1.53940   1.54039
 Alpha virt. eigenvalues --    1.54162   1.54695   1.55188   1.55586   1.55805
 Alpha virt. eigenvalues --    1.56106   1.56246   1.56481   1.56593   1.57089
 Alpha virt. eigenvalues --    1.57209   1.57691   1.57927   1.58173   1.58446
 Alpha virt. eigenvalues --    1.58552   1.58909   1.59351   1.59461   1.59679
 Alpha virt. eigenvalues --    1.59851   1.59981   1.60283   1.60572   1.61012
 Alpha virt. eigenvalues --    1.61258   1.61455   1.61546   1.62209   1.62314
 Alpha virt. eigenvalues --    1.62349   1.62585   1.62858   1.63114   1.63505
 Alpha virt. eigenvalues --    1.63666   1.64119   1.64289   1.64429   1.64770
 Alpha virt. eigenvalues --    1.65285   1.65327   1.65692   1.66071   1.66559
 Alpha virt. eigenvalues --    1.66586   1.66803   1.66850   1.67309   1.67858
 Alpha virt. eigenvalues --    1.67983   1.68354   1.68582   1.69274   1.69396
 Alpha virt. eigenvalues --    1.69497   1.69732   1.69930   1.70116   1.70282
 Alpha virt. eigenvalues --    1.70508   1.70624   1.70726   1.70829   1.70964
 Alpha virt. eigenvalues --    1.71019   1.71105   1.71631   1.71678   1.72174
 Alpha virt. eigenvalues --    1.72211   1.72375   1.72559   1.72744   1.72947
 Alpha virt. eigenvalues --    1.73051   1.73188   1.73309   1.73421   1.74038
 Alpha virt. eigenvalues --    1.74140   1.74567   1.74700   1.74812   1.75048
 Alpha virt. eigenvalues --    1.75135   1.75172   1.75264   1.75365   1.75598
 Alpha virt. eigenvalues --    1.75966   1.76049   1.76305   1.76463   1.76745
 Alpha virt. eigenvalues --    1.76811   1.76945   1.77128   1.77186   1.77296
 Alpha virt. eigenvalues --    1.77338   1.77491   1.77805   1.77890   1.78114
 Alpha virt. eigenvalues --    1.78228   1.78392   1.78499   1.78633   1.78851
 Alpha virt. eigenvalues --    1.78985   1.79319   1.79392   1.79430   1.79573
 Alpha virt. eigenvalues --    1.79695   1.80027   1.80206   1.80393   1.80586
 Alpha virt. eigenvalues --    1.80628   1.80729   1.80930   1.80965   1.81142
 Alpha virt. eigenvalues --    1.81249   1.81391   1.81553   1.81958   1.82034
 Alpha virt. eigenvalues --    1.82271   1.82452   1.82493   1.82718   1.82979
 Alpha virt. eigenvalues --    1.83211   1.83263   1.83285   1.83397   1.83482
 Alpha virt. eigenvalues --    1.83615   1.83674   1.83832   1.83919   1.84098
 Alpha virt. eigenvalues --    1.84393   1.84484   1.84648   1.84905   1.85101
 Alpha virt. eigenvalues --    1.85417   1.85438   1.85568   1.85763   1.85883
 Alpha virt. eigenvalues --    1.85986   1.86396   1.86414   1.86760   1.86991
 Alpha virt. eigenvalues --    1.87158   1.87256   1.87390   1.87595   1.87780
 Alpha virt. eigenvalues --    1.87932   1.88412   1.88503   1.88590   1.88716
 Alpha virt. eigenvalues --    1.88869   1.89115   1.89200   1.89306   1.89463
 Alpha virt. eigenvalues --    1.89924   1.90136   1.90189   1.90367   1.90640
 Alpha virt. eigenvalues --    1.90819   1.91094   1.91256   1.91380   1.91681
 Alpha virt. eigenvalues --    1.91812   1.92241   1.92385   1.92406   1.92501
 Alpha virt. eigenvalues --    1.92811   1.92857   1.93196   1.93491   1.93602
 Alpha virt. eigenvalues --    1.93888   1.94289   1.94498   1.94583   1.94687
 Alpha virt. eigenvalues --    1.94812   1.94914   1.95177   1.95311   1.95344
 Alpha virt. eigenvalues --    1.95491   1.95711   1.95829   1.96059   1.96250
 Alpha virt. eigenvalues --    1.96507   1.96607   1.96994   1.97039   1.97177
 Alpha virt. eigenvalues --    1.97467   1.97723   1.97877   1.98089   1.98167
 Alpha virt. eigenvalues --    1.98339   1.98725   1.98971   1.99125   1.99470
 Alpha virt. eigenvalues --    1.99635   1.99790   2.00015   2.00119   2.00759
 Alpha virt. eigenvalues --    2.00821   2.01030   2.01232   2.01620   2.02018
 Alpha virt. eigenvalues --    2.02365   2.02620   2.02867   2.03050   2.03453
 Alpha virt. eigenvalues --    2.03678   2.03939   2.04165   2.04237   2.04542
 Alpha virt. eigenvalues --    2.04818   2.05146   2.05243   2.05475   2.05818
 Alpha virt. eigenvalues --    2.06014   2.06317   2.06690   2.06971   2.07262
 Alpha virt. eigenvalues --    2.07438   2.07566   2.07595   2.08034   2.08271
 Alpha virt. eigenvalues --    2.08410   2.08732   2.09513   2.09870   2.09967
 Alpha virt. eigenvalues --    2.10364   2.10767   2.10916   2.11183   2.11246
 Alpha virt. eigenvalues --    2.11869   2.11990   2.12024   2.12594   2.12635
 Alpha virt. eigenvalues --    2.12789   2.12994   2.13306   2.13553   2.13952
 Alpha virt. eigenvalues --    2.14057   2.14644   2.14747   2.15005   2.15101
 Alpha virt. eigenvalues --    2.15252   2.15340   2.15543   2.15694   2.15923
 Alpha virt. eigenvalues --    2.16130   2.16440   2.16553   2.16634   2.17091
 Alpha virt. eigenvalues --    2.17223   2.17492   2.17841   2.18144   2.18270
 Alpha virt. eigenvalues --    2.18392   2.18794   2.18912   2.19195   2.19269
 Alpha virt. eigenvalues --    2.19440   2.19559   2.19989   2.20759   2.20853
 Alpha virt. eigenvalues --    2.21232   2.21394   2.21443   2.21858   2.22180
 Alpha virt. eigenvalues --    2.22569   2.22595   2.23005   2.23308   2.23419
 Alpha virt. eigenvalues --    2.23552   2.24174   2.24300   2.24446   2.24499
 Alpha virt. eigenvalues --    2.24893   2.25655   2.26081   2.26395   2.26513
 Alpha virt. eigenvalues --    2.26646   2.26721   2.27362   2.27719   2.27837
 Alpha virt. eigenvalues --    2.27954   2.28259   2.28655   2.29019   2.29143
 Alpha virt. eigenvalues --    2.29315   2.29447   2.29974   2.30061   2.30340
 Alpha virt. eigenvalues --    2.30590   2.31110   2.31188   2.31579   2.31984
 Alpha virt. eigenvalues --    2.32142   2.32302   2.32950   2.33605   2.33757
 Alpha virt. eigenvalues --    2.34396   2.34724   2.35775   2.36250   2.36367
 Alpha virt. eigenvalues --    2.36650   2.36826   2.37140   2.37454   2.37926
 Alpha virt. eigenvalues --    2.37967   2.38248   2.38358   2.38802   2.39127
 Alpha virt. eigenvalues --    2.39305   2.39520   2.40113   2.40291   2.40460
 Alpha virt. eigenvalues --    2.40792   2.40931   2.41295   2.41317   2.41801
 Alpha virt. eigenvalues --    2.42035   2.42229   2.42758   2.43117   2.43457
 Alpha virt. eigenvalues --    2.44044   2.44161   2.44853   2.44990   2.45090
 Alpha virt. eigenvalues --    2.45420   2.45726   2.45797   2.46011   2.46446
 Alpha virt. eigenvalues --    2.46733   2.47198   2.47309   2.47347   2.47693
 Alpha virt. eigenvalues --    2.48046   2.48291   2.49166   2.49470   2.49574
 Alpha virt. eigenvalues --    2.49920   2.50483   2.50647   2.50980   2.51675
 Alpha virt. eigenvalues --    2.51794   2.51993   2.52336   2.52588   2.53034
 Alpha virt. eigenvalues --    2.53107   2.53412   2.53522   2.53890   2.53919
 Alpha virt. eigenvalues --    2.53998   2.54583   2.54662   2.55092   2.55610
 Alpha virt. eigenvalues --    2.56165   2.56627   2.57132   2.57392   2.57527
 Alpha virt. eigenvalues --    2.57622   2.57739   2.57920   2.58480   2.58675
 Alpha virt. eigenvalues --    2.58801   2.58860   2.59350   2.59613   2.59798
 Alpha virt. eigenvalues --    2.59830   2.60161   2.60482   2.60666   2.60804
 Alpha virt. eigenvalues --    2.60854   2.61133   2.61639   2.61751   2.61962
 Alpha virt. eigenvalues --    2.62607   2.62876   2.63332   2.63422   2.63575
 Alpha virt. eigenvalues --    2.63745   2.63947   2.65615   2.66203   2.66408
 Alpha virt. eigenvalues --    2.67176   2.67369   2.67570   2.68629   2.68695
 Alpha virt. eigenvalues --    2.69087   2.69168   2.69511   2.69706   2.69906
 Alpha virt. eigenvalues --    2.70130   2.70911   2.71631   2.72385   2.72482
 Alpha virt. eigenvalues --    2.72813   2.73187   2.73199   2.73830   2.73899
 Alpha virt. eigenvalues --    2.74132   2.74413   2.74970   2.75041   2.75234
 Alpha virt. eigenvalues --    2.75273   2.75518   2.75821   2.76504   2.76631
 Alpha virt. eigenvalues --    2.76945   2.77011   2.77281   2.77615   2.77642
 Alpha virt. eigenvalues --    2.77883   2.78045   2.78430   2.78600   2.78896
 Alpha virt. eigenvalues --    2.79133   2.79243   2.79382   2.79572   2.79722
 Alpha virt. eigenvalues --    2.79883   2.79961   2.80092   2.80155   2.80280
 Alpha virt. eigenvalues --    2.80375   2.80533   2.81048   2.81434   2.81704
 Alpha virt. eigenvalues --    2.81796   2.81888   2.82696   2.82959   2.83457
 Alpha virt. eigenvalues --    2.83479   2.83899   2.84023   2.84323   2.84675
 Alpha virt. eigenvalues --    2.84816   2.84900   2.85158   2.85180   2.85464
 Alpha virt. eigenvalues --    2.86224   2.86516   2.86578   2.86687   2.86854
 Alpha virt. eigenvalues --    2.87355   2.87522   2.87625   2.87856   2.88208
 Alpha virt. eigenvalues --    2.88660   2.89317   2.89404   2.89901   2.90115
 Alpha virt. eigenvalues --    2.90638   2.90910   2.91363   2.91653   2.91822
 Alpha virt. eigenvalues --    2.91897   2.92068   2.92384   2.92649   2.92771
 Alpha virt. eigenvalues --    2.93030   2.93168   2.93199   2.93501   2.93709
 Alpha virt. eigenvalues --    2.93907   2.94163   2.94281   2.94502   2.94633
 Alpha virt. eigenvalues --    2.95336   2.95545   2.95573   2.95632   2.95859
 Alpha virt. eigenvalues --    2.96363   2.96578   2.96654   2.97016   2.97035
 Alpha virt. eigenvalues --    2.97222   2.97517   2.97688   2.97731   2.97819
 Alpha virt. eigenvalues --    2.98103   2.98209   2.98666   2.99037   2.99328
 Alpha virt. eigenvalues --    2.99557   2.99769   3.00148   3.00273   3.00541
 Alpha virt. eigenvalues --    3.00754   3.01188   3.01641   3.01769   3.01916
 Alpha virt. eigenvalues --    3.02251   3.02440   3.03090   3.03154   3.03183
 Alpha virt. eigenvalues --    3.03347   3.04227   3.04578   3.04721   3.05286
 Alpha virt. eigenvalues --    3.05479   3.06540   3.06725   3.06973   3.07291
 Alpha virt. eigenvalues --    3.07734   3.08753   3.09192   3.09230   3.09506
 Alpha virt. eigenvalues --    3.09874   3.10286   3.10314   3.10398   3.11057
 Alpha virt. eigenvalues --    3.11361   3.11899   3.11976   3.12189   3.12896
 Alpha virt. eigenvalues --    3.13344   3.13838   3.14395   3.14742   3.14946
 Alpha virt. eigenvalues --    3.15055   3.15163   3.15321   3.15733   3.15888
 Alpha virt. eigenvalues --    3.16196   3.16400   3.16442   3.16772   3.17631
 Alpha virt. eigenvalues --    3.17680   3.18030   3.18102   3.18657   3.19382
 Alpha virt. eigenvalues --    3.19462   3.19678   3.20019   3.20202   3.20280
 Alpha virt. eigenvalues --    3.20513   3.20671   3.20883   3.21394   3.21455
 Alpha virt. eigenvalues --    3.21919   3.22377   3.22976   3.23246   3.23303
 Alpha virt. eigenvalues --    3.25003   3.26069   3.26225   3.26751   3.27296
 Alpha virt. eigenvalues --    3.27620   3.27815   3.29549   3.29659   3.30058
 Alpha virt. eigenvalues --    3.30118   3.31073   3.32952   3.37323   3.37707
 Alpha virt. eigenvalues --    3.37958   3.39163   3.39480   3.42154   3.42364
 Alpha virt. eigenvalues --    3.44469   3.46722   3.46951   3.48289   3.49182
 Alpha virt. eigenvalues --    3.49727   3.50126   3.52975   3.53152   3.53483
 Alpha virt. eigenvalues --    3.53919   3.54268   3.54517   3.55625   3.55752
 Alpha virt. eigenvalues --    3.56621   3.57126   3.57909   3.58037   3.58666
 Alpha virt. eigenvalues --    3.59068   3.59828   3.64935   3.65974   3.66695
 Alpha virt. eigenvalues --    3.67243   3.68258   3.69565   3.69747   3.69981
 Alpha virt. eigenvalues --    3.70048   3.70674   3.70910   3.71371   3.71442
 Alpha virt. eigenvalues --    3.71610   3.72254   3.72308   3.73352   3.73970
 Alpha virt. eigenvalues --    3.74139   3.74570   3.74882   3.75081   3.75538
 Alpha virt. eigenvalues --    3.76277   3.80320   3.82466   3.83933   3.85893
 Alpha virt. eigenvalues --    3.87631
          Condensed to atoms (all electrons):
 Mulliken charges:
               1
     1  C    0.041832
     2  C    0.005943
     3  O   -0.293961
     4  H    0.026298
     5  H    0.033879
     6  H    0.035128
     7  N   -0.168378
     8  C    0.093694
     9  C    0.127428
    10  O   -0.282677
    11  C    0.096650
    12  C    0.058072
    13  O   -0.375522
    14  O   -0.496409
    15  H    0.115573
    16  H   -0.002949
    17  H   -0.002677
    18  H    0.023952
    19  N   -0.165415
    20  C    0.102842
    21  C    0.111319
    22  O   -0.287923
    23  C    0.047978
    24  C   -0.040280
    25  C   -0.023165
    26  C    0.040826
    27  N    0.036978
    28  H    0.130472
    29  H    0.039060
    30  H    0.015415
    31  H   -0.007775
    32  H    0.022372
    33  H    0.037047
    34  H    0.037841
    35  H    0.003019
    36  H    0.080563
    37  H    0.041235
    38  H    0.196421
    39  H    0.173369
    40  H    0.185083
    41  N   -0.127225
    42  C    0.004234
    43  C    0.102656
    44  O   -0.288206
    45  C    0.083674
    46  C    0.074942
    47  O   -0.514978
    48  O   -0.341393
    49  H    0.129995
    50  H    0.033020
    51  H    0.027136
    52  H    0.012195
    53  N   -0.161798
    54  C    0.145988
    55  C    0.005502
    56  O   -0.274933
    57  H    0.133914
    58  H    0.071689
    59  H    0.068197
    60  N   -0.151802
    61  C    0.125274
    62  C    0.106185
    63  O   -0.326719
    64  C    0.022700
    65  C    0.051466
    66  O   -0.460517
    67  O   -0.298961
    68  H    0.138908
    69  H    0.026225
    70  H    0.002945
    71  H    0.015165
    72  N   -0.155121
    73  C    0.166091
    74  C    0.036494
    75  O   -0.301908
    76  H    0.154048
    77  H    0.064095
    78  H    0.064230
    79  N   -0.155253
    80  C    0.155995
    81  C    0.085736
    82  O   -0.307191
    83  C    0.095209
    84  C    0.016994
    85  O   -0.307528
    86  H    0.135973
    87  H    0.000854
    88  H    0.003192
    89  H    0.183405
    90  H    0.022257
    91  H    0.021077
    92  H    0.022180
    93  N   -0.150039
    94  C    0.132270
    95  C    0.087434
    96  O   -0.263097
    97  C   -0.093219
    98  C    0.005499
    99  C    0.017072
   100  C   -0.018209
   101  H    0.141274
   102  H    0.025692
   103  H    0.016368
   104  H    0.020601
   105  H   -0.004658
   106  H   -0.010488
   107  H    0.038493
   108  H    0.009267
   109  H    0.011154
   110  H    0.026540
   111  H    0.014676
   112  N   -0.185840
   113  C    0.169191
   114  C    0.108598
   115  O   -0.290879
   116  C    0.074133
   117  C   -0.017554
   118  O   -0.301216
   119  H    0.150914
   120  H    0.028288
   121  H    0.009179
   122  H    0.182993
   123  H   -0.001260
   124  H    0.030964
   125  H    0.043214
   126  N   -0.152957
   127  C    0.110634
   128  C    0.092060
   129  O   -0.241231
   130  C    0.088336
   131  C    0.035457
   132  O   -0.309874
   133  H    0.142618
   134  H    0.041346
   135  H   -0.010088
   136  H    0.171755
   137  H    0.050664
   138  H   -0.013019
   139  H    0.023663
   140  N   -0.177227
   141  C    0.105052
   142  C    0.097305
   143  O   -0.282139
   144  C    0.002660
   145  C   -0.003638
   146  C   -0.063937
   147  C    0.026217
   148  N    0.074649
   149  H    0.150344
   150  H    0.055899
   151  H   -0.003939
   152  H    0.019371
   153  H    0.031233
   154  H    0.042371
   155  H    0.018746
   156  H    0.024182
   157  H    0.079270
   158  H    0.079010
   159  H    0.161124
   160  H    0.162830
   161  H    0.164398
   162  N   -0.143018
   163  C    0.080767
   164  C    0.039137
   165  O   -0.249123
   166  C    0.060843
   167  C    0.057730
   168  C    0.153516
   169  O   -0.618308
   170  O   -0.332401
   171  H    0.142896
   172  H    0.016539
   173  H    0.025111
   174  H    0.018597
   175  H    0.003747
   176  H    0.008681
   177  N   -0.190325
   178  C    0.096000
   179  H    0.067148
   180  H    0.004489
   181  H    0.030927
   182  H    0.122143
   183  Ca   1.231083
   184  O   -0.322374
   185  H    0.196636
   186  H    0.198274
   187  O   -0.302821
   188  H    0.179524
   189  H    0.190933
   190  O   -0.297541
   191  H    0.194097
   192  H    0.190784
   193  O   -0.319933
   194  H    0.170386
   195  H    0.178096
   196  O   -0.348790
   197  H    0.199968
   198  H    0.216622
 Sum of Mulliken charges =  -0.00000
 Mulliken charges with hydrogens summed into heavy atoms:
               1
     1  C    0.137137
     2  C    0.005943
     3  O   -0.293961
     7  N   -0.052805
     8  C    0.090745
     9  C    0.127428
    10  O   -0.282677
    11  C    0.117925
    12  C    0.058072
    13  O   -0.375522
    14  O   -0.496409
    19  N   -0.034944
    20  C    0.141901
    21  C    0.111319
    22  O   -0.287923
    23  C    0.055618
    24  C    0.019139
    25  C    0.017695
    26  C    0.162623
    27  N    0.591851
    41  N    0.002770
    42  C    0.037254
    43  C    0.102656
    44  O   -0.288206
    45  C    0.123005
    46  C    0.074942
    47  O   -0.514978
    48  O   -0.341393
    53  N   -0.027884
    54  C    0.285875
    55  C    0.005502
    56  O   -0.274933
    60  N   -0.012894
    61  C    0.151498
    62  C    0.106185
[...]
 **** Fit      -0.020668
 **** Fit      -0.022112
 **** Fit      -0.024690
 **** Fit      -0.028230
 **** Fit      -0.032495
 **** Fit      -0.037124
 **** Fit      -0.041573
 **** Fit      -0.035353
 **** Fit      -0.028361
 **** Fit      -0.023762
 **** Fit      -0.021008
 **** Fit      -0.019773
 **** Fit      -0.019847
 **** Fit      -0.021074
 **** Fit      -0.023318
 **** Fit      -0.026425
 **** Fit      -0.030181
 **** Fit      -0.034260
 **** Fit      -0.040175
 **** Fit      -0.031920
 **** Fit      -0.026199
 **** Fit      -0.022462
 **** Fit      -0.020367
 **** Fit      -0.019686
 **** Fit      -0.020252
 **** Fit      -0.021924
 **** Fit      -0.024558
 **** Fit      -0.027966
 **** Fit      -0.031867
 **** Fit      -0.035802
 **** Fit      -0.040196
 **** Fit      -0.032348
 **** Fit      -0.026736
 **** Fit      -0.023055
 **** Fit      -0.021060
 **** Fit      -0.020553
 **** Fit      -0.021377
 **** Fit      -0.023384
 **** Fit      -0.026416
 **** Fit      -0.030257
 **** Fit      -0.034577
 **** Fit      -0.033941
 **** Fit      -0.028204
 **** Fit      -0.024483
 **** Fit      -0.022578
 **** Fit      -0.022298
 **** Fit      -0.023485
 **** Fit      -0.025996
 **** Fit      -0.029689
 **** Fit      -0.034391
 **** Fit      -0.029061
 **** Fit      -0.025718
 **** Fit      -0.024651
 **** Fit      -0.025613
 **** Fit      -0.028444
 **** Fit      -0.033061
 **** Fit      -0.039447
 **** Fit      -0.027677
 **** Fit      -0.028184
 **** Fit      -0.031392
 **** Fit      -0.023397
 **** Fit      -0.026060
 **** Fit      -0.043235
 **** Fit      -0.047929
 **** Fit      -0.046804
 **** Fit      -0.050430
 **** Fit      -0.024541
 **** Fit      -0.042153
 **** Fit      -0.046234
 **** Fit      -0.050894
 **** Fit      -0.024755
 **** Fit      -0.027984
 **** Fit      -0.031550
 **** Fit      -0.035427
 **** Fit      -0.039606
 **** Fit      -0.044202
 **** Fit      -0.049613
 **** Fit      -0.022652
 **** Fit      -0.025882
 **** Fit      -0.029527
 **** Fit      -0.033593
 **** Fit      -0.038135
 **** Fit      -0.043371
 **** Fit      -0.049866
 **** Fit      -0.023117
 **** Fit      -0.026754
 **** Fit      -0.030911
 **** Fit      -0.035674
 **** Fit      -0.041313
 **** Fit      -0.048446
 **** Fit      -0.020445
 **** Fit      -0.024374
 **** Fit      -0.028938
 **** Fit      -0.034276
 **** Fit      -0.040769
 **** Fit      -0.019867
 **** Fit      -0.020972
 **** Fit      -0.021671
 **** Fit      -0.020395
 **** Fit      -0.020689
 **** Fit      -0.030158
 **** Fit      -0.026513
 **** Fit      -0.023287
 **** Fit      -0.021208
 **** Fit      -0.020663
 **** Fit      -0.021867
 **** Fit      -0.025922
 **** Fit      -0.022749
 **** Fit      -0.020863
 **** Fit      -0.020705
 **** Fit      -0.023844
 **** Fit      -0.021205
 **** Fit      -0.019788
 **** Fit      -0.020090
 **** Fit      -0.019871
 **** Fit      -0.018088
 **** Fit      -0.017599
 **** Fit      -0.026177
 **** Fit      -0.017911
 **** Fit      -0.012847
 **** Fit      -0.011650
 **** Fit      -0.009245
 **** Fit      -0.006276
 **** Fit      -0.055595
 **** Fit      -0.049956
 **** Fit      -0.030130
 **** Fit      -0.036627
 **** Fit      -0.041468
 **** Fit      -0.042206
 **** Fit      -0.039513
 **** Fit      -0.034962
 **** Fit      -0.025488
 **** Fit      -0.022632
 **** Fit      -0.012453
 **** Fit      -0.024168
 **** Fit      -0.029238
 **** Fit      -0.031612
 **** Fit      -0.031114
 **** Fit      -0.028647
 **** Fit      -0.021190
 **** Fit      -0.019241
 **** Fit      -0.017717
 **** Fit      -0.015073
 **** Fit      -0.012950
 **** Fit      -0.009359
 **** Fit      -0.009528
 **** Fit      -0.010489
 **** Fit      -0.012530
 **** Fit      -0.016169
 **** Fit      -0.020246
 **** Fit      -0.023150
 **** Fit      -0.024021
 **** Fit      -0.023075
 **** Fit      -0.017371
 **** Fit      -0.016017
 **** Fit      -0.014779
 **** Fit      -0.013645
 **** Fit      -0.012136
 **** Fit      -0.009698
 **** Fit      -0.006408
 **** Fit      -0.004582
 **** Fit      -0.006986
 **** Fit      -0.008866
 **** Fit      -0.010834
 **** Fit      -0.013520
 **** Fit      -0.016357
 **** Fit      -0.018147
 **** Fit      -0.018344
 **** Fit      -0.014064
 **** Fit      -0.012966
 **** Fit      -0.011503
 **** Fit      -0.009458
 **** Fit      -0.006799
 **** Fit      -0.004694
 **** Fit      -0.004574
 **** Fit      -0.006201
 **** Fit      -0.008337
 **** Fit      -0.010688
 **** Fit      -0.013033
 **** Fit      -0.014302
 **** Fit      -0.011235
 **** Fit      -0.009873
 **** Fit      -0.007575
 **** Fit      -0.006647
 **** Fit      -0.008300
 **** Fit      -0.010580
 **** Fit      -0.008804
 **** Fit      -0.018747
 **** Fit      -0.016359
 **** Fit      -0.015913
 **** Fit      -0.017455
 **** Fit      -0.020720
 **** Fit      -0.025434
 **** Fit      -0.031537
 **** Fit      -0.039375
 **** Fit      -0.021545
 **** Fit      -0.018141
 **** Fit      -0.016093
 **** Fit      -0.015632
 **** Fit      -0.016714
 **** Fit      -0.019207
 **** Fit      -0.023031
 **** Fit      -0.028263
 **** Fit      -0.035195
 **** Fit      -0.024119
 **** Fit      -0.020145
 **** Fit      -0.016875
 **** Fit      -0.014823
 **** Fit      -0.014159
 **** Fit      -0.014867
 **** Fit      -0.016882
 **** Fit      -0.020168
 **** Fit      -0.024775
 **** Fit      -0.030807
 **** Fit      -0.023443
 **** Fit      -0.019946
 **** Fit      -0.016582
 **** Fit      -0.014035
 **** Fit      -0.012640
 **** Fit      -0.012496
 **** Fit      -0.013588
 **** Fit      -0.015871
 **** Fit      -0.019301
 **** Fit      -0.023812
 **** Fit      -0.029180
 **** Fit      -0.020649
 **** Fit      -0.018338
 **** Fit      -0.015554
 **** Fit      -0.013073
 **** Fit      -0.011383
 **** Fit      -0.010712
 **** Fit      -0.011124
 **** Fit      -0.012589
 **** Fit      -0.015022
 **** Fit      -0.018266
 **** Fit      -0.022012
 **** Fit      -0.025709
 **** Fit      -0.028563
 **** Fit      -0.029764
 **** Fit      -0.028842
 **** Fit      -0.016120
 **** Fit      -0.016150
 **** Fit      -0.014669
 **** Fit      -0.012579
 **** Fit      -0.010678
 **** Fit      -0.009484
 **** Fit      -0.009246
 **** Fit      -0.010013
 **** Fit      -0.011700
 **** Fit      -0.014088
 **** Fit      -0.016791
 **** Fit      -0.019228
 **** Fit      -0.020710
 **** Fit      -0.020683
 **** Fit      -0.019001
 **** Fit      -0.011231
 **** Fit      -0.012014
 **** Fit      -0.011300
 **** Fit      -0.009913
 **** Fit      -0.008636
 **** Fit      -0.007994
 **** Fit      -0.008213
 **** Fit      -0.009271
 **** Fit      -0.010938
 **** Fit      -0.012783
 **** Fit      -0.014228
 **** Fit      -0.014704
 **** Fit      -0.013912
 **** Fit      -0.007699
 **** Fit      -0.008685
 **** Fit      -0.008345
 **** Fit      -0.007517
 **** Fit      -0.006984
 **** Fit      -0.007162
 **** Fit      -0.008044
 **** Fit      -0.009262
 **** Fit      -0.010213
 **** Fit      -0.010309
 **** Fit      -0.009296
 **** Fit      -0.005634
 **** Fit      -0.006451
 **** Fit      -0.006265
 **** Fit      -0.006140
 **** Fit      -0.006613
 **** Fit      -0.007310
 **** Fit      -0.007375
 **** Fit      -0.006265
 **** Fit      -0.003455
 **** Fit      -0.004630
 **** Fit      -0.005290
 **** Fit      -0.005549
 **** Fit      -0.005513
 **** Fit      -0.004217
 **** Fit      -0.004605
 **** Fit      -0.044959
 **** Fit      -0.038500
 **** Fit      -0.046260
 **** Fit      -0.042413
 **** Fit      -0.038335
 **** Fit      -0.034077
 **** Fit      -0.045893
 **** Fit      -0.043712
 **** Fit      -0.041283
 **** Fit      -0.038692
 **** Fit      -0.036020
 **** Fit      -0.033400
 **** Fit      -0.031070
 **** Fit      -0.029413
 **** Fit      -0.042283
 **** Fit      -0.040709
 **** Fit      -0.039045
 **** Fit      -0.037308
 **** Fit      -0.035575
 **** Fit      -0.033989
 **** Fit      -0.032789
 **** Fit      -0.032340
 **** Fit      -0.040268
 **** Fit      -0.038990
 **** Fit      -0.037855
 **** Fit      -0.036742
 **** Fit      -0.035635
 **** Fit      -0.034600
 **** Fit      -0.033778
 **** Fit      -0.033403
 **** Fit      -0.039058
 **** Fit      -0.037165
 **** Fit      -0.036002
 **** Fit      -0.035152
 **** Fit      -0.034426
 **** Fit      -0.033771
 **** Fit      -0.033225
 **** Fit      -0.032915
 **** Fit      -0.033057
 **** Fit      -0.034002
 **** Fit      -0.040893
 **** Fit      -0.036643
 **** Fit      -0.034273
 **** Fit      -0.032963
 **** Fit      -0.032200
 **** Fit      -0.031707
 **** Fit      -0.031364
 **** Fit      -0.031163
 **** Fit      -0.031192
 **** Fit      -0.031636
 **** Fit      -0.032807
 **** Fit      -0.037695
 **** Fit      -0.033450
 **** Fit      -0.030869
 **** Fit      -0.029426
 **** Fit      -0.028679
 **** Fit      -0.028332
 **** Fit      -0.028224
 **** Fit      -0.028305
 **** Fit      -0.028624
 **** Fit      -0.029324
 **** Fit      -0.030662
 **** Fit      -0.024973
 **** Fit      -0.025732
 **** Fit      -0.026980
 **** Fit      -0.029012
 **** Fit      -0.037634
 **** Fit      -0.032578
 **** Fit      -0.028814
 **** Fit      -0.026417
 **** Fit      -0.025105
 **** Fit      -0.024534
 **** Fit      -0.024432
 **** Fit      -0.032254
 **** Fit      -0.034818
 **** Fit      -0.034669
 **** Fit      -0.032311
 **** Fit      -0.028893
 **** Fit      -0.025550
 **** Fit      -0.022954
 **** Fit      -0.021283
 **** Fit      -0.020427
 **** Fit      -0.020187
 **** Fit      -0.020392
 **** Fit      -0.020951
 **** Fit      -0.021873
 **** Fit      -0.023271
 **** Fit      -0.025386
 **** Fit      -0.028588
 **** Fit      -0.046479
 **** Fit      -0.040088
 **** Fit      -0.031342
 **** Fit      -0.019338
 **** Fit      -0.022882
 **** Fit      -0.025033
 **** Fit      -0.025399
 **** Fit      -0.024226
 **** Fit      -0.022205
 **** Fit      -0.020090
 **** Fit      -0.018398
 **** Fit      -0.017332
 **** Fit      -0.016881
 **** Fit      -0.016950
 **** Fit      -0.017450
 **** Fit      -0.018356
 **** Fit      -0.019718
 **** Fit      -0.021675
 **** Fit      -0.024445
 **** Fit      -0.028266
 **** Fit      -0.033265
 **** Fit      -0.039168
 **** Fit      -0.044980
 **** Fit      -0.037292
 **** Fit      -0.037275
 **** Fit      -0.034327
 **** Fit      -0.028934
 **** Fit      -0.022140
 **** Fit      -0.011467
 **** Fit      -0.013824
 **** Fit      -0.016358
 **** Fit      -0.018236
 **** Fit      -0.018928
 **** Fit      -0.018443
 **** Fit      -0.017236
 **** Fit      -0.015898
 **** Fit      -0.014873
 **** Fit      -0.014365
 **** Fit      -0.014400
 **** Fit      -0.014940
 **** Fit      -0.015966
 **** Fit      -0.017520
 **** Fit      -0.019708
 **** Fit      -0.022658
 **** Fit      -0.026404
 **** Fit      -0.030684
 **** Fit      -0.034722
 **** Fit      -0.028593
 **** Fit      -0.028200
 **** Fit      -0.025558
 **** Fit      -0.021267
 **** Fit      -0.016563
 **** Fit      -0.012945
 **** Fit      -0.011335
 **** Fit      -0.011524
 **** Fit      -0.012680
 **** Fit      -0.013919
 **** Fit      -0.014583
 **** Fit      -0.014460
 **** Fit      -0.013792
 **** Fit      -0.013029
 **** Fit      -0.012549
 **** Fit      -0.012547
 **** Fit      -0.013077
 **** Fit      -0.014149
 **** Fit      -0.015789
 **** Fit      -0.018036
 **** Fit      -0.020867
 **** Fit      -0.024039
 **** Fit      -0.026929
 **** Fit      -0.022111
 **** Fit      -0.021470
 **** Fit      -0.019024
 **** Fit      -0.015708
 **** Fit      -0.012902
 **** Fit      -0.011503
 **** Fit      -0.011386
 **** Fit      -0.011798
 **** Fit      -0.012028
 **** Fit      -0.011833
 **** Fit      -0.011451
 **** Fit      -0.011276
 **** Fit      -0.011591
 **** Fit      -0.012511
 **** Fit      -0.014059
 **** Fit      -0.016184
 **** Fit      -0.018661
 **** Fit      -0.020930
 **** Fit      -0.017339
 **** Fit      -0.016454
 **** Fit      -0.014140
 **** Fit      -0.012016
 **** Fit      -0.011058
 **** Fit      -0.010851
 **** Fit      -0.010715
 **** Fit      -0.010662
 **** Fit      -0.011122
 **** Fit      -0.012363
 **** Fit      -0.014287
 **** Fit      -0.016314
 **** Fit      -0.013958
 **** Fit      -0.012789
 **** Fit      -0.011195
 **** Fit      -0.010709
 **** Fit      -0.011204
 **** Fit      -0.012813
 **** Fit      -0.011781
 **** Fit      -0.030200
 **** Fit      -0.031871
 **** Fit      -0.036571
 **** Fit      -0.033513
 **** Fit      -0.036651
 **** Fit      -0.042769
 **** Fit      -0.035385
 **** Fit      -0.039383
 **** Fit      -0.046410
 **** Fit      -0.035087
 **** Fit      -0.038967
 **** Fit      -0.045784
 **** Fit      -0.036630
 **** Fit      -0.042626
 **** Fit      -0.033566
 **** Fit      -0.038824
 **** Fit      -0.046855
 **** Fit      -0.038514
 **** Fit      -0.037627
 **** Fit      -0.043824
 -----------------------------------------------------------------
 Leave Link  602 at Thu Feb 20 21:42:51 2020, MaxMem=  1342177280 cpu:             126.9 elap:               2.7

 Test job not archived.
 1\1\GINC-C491-031\SP\RB3LYP\SVP\C54H99Ca1N15O29\PENGZHI\20-Feb-2020\0\
 \#b3lyp/svp scf=(tight,noincore) Test #IOP(5/87=12) Density=Current Po
 p=(MK,readradii) iop(6/33=2) iop(6/42=6)\\loop1.cluster10\\0,1\C,0,32.
 49039,78.66728,27.13825\C,0,33.06076,77.59961,28.01929\O,0,33.33322,76
 .50163,27.56203\H,0,31.51092,78.99086,27.5486\H,0,33.18238,79.53929,27
 .14945\H,0,32.36674,78.31909,26.09412\N,0,33.30154,77.90001,29.31738\C
 ,0,33.98507,77.02784,30.26535\C,0,33.17865,75.83072,30.77645\O,0,33.62
 777,75.22142,31.73931\C,0,34.50283,77.88773,31.45318\C,0,33.45983,78.5
 8986,32.27996\O,0,32.8282,79.53029,31.82385\O,0,33.29422,78.24259,33.5
 6928\H,0,33.08055,78.85998,29.60673\H,0,34.90848,76.62457,29.79625\H,0
 ,35.21092,78.65347,31.06844\H,0,35.0703,77.23257,32.13643\N,0,31.98823
 ,75.43418,30.22411\C,0,31.18169,74.37543,30.83085\C,0,30.84809,73.2267
 7,29.87467\O,0,29.8769,73.35607,29.14125\C,0,29.88784,75.01306,31.3887
 6\C,0,30.22274,75.95196,32.56031\C,0,28.98082,76.65366,33.12381\C,0,29
 .31992,77.60295,34.29036\N,0,30.01545,78.81022,33.83965\H,0,31.60336,7
 5.9295,29.41024\H,0,31.68849,73.95453,31.70132\H,0,29.19057,74.2255,31
 .75046\H,0,29.37911,75.57981,30.57433\H,0,30.95432,76.70603,32.21638\H
 ,0,30.68791,75.34562,33.37054\H,0,28.28992,75.86951,33.50039\H,0,28.46
 087,77.22791,32.32667\H,0,29.93029,77.06767,35.05293\H,0,28.37149,77.9
 1864,34.77449\H,0,30.22654,79.41836,34.66372\H,0,30.90952,78.57051,33.
 37204\H,0,29.41474,79.34361,33.17051\N,0,31.5206,72.02371,29.85705\C,0
 ,32.80808,71.71956,30.5038\C,0,32.75288,71.74092,32.03822\O,0,31.64794
 ,71.79402,32.55856\C,0,33.91274,72.54152,29.78625\C,0,35.05728,71.6949
 5,29.29305\O,0,36.31983,72.14084,29.40531\O,0,34.84015,70.64085,28.713
 64\H,0,31.13942,71.28526,29.24162\H,0,33.00203,70.65004,30.26648\H,0,3
 4.2664,73.40027,30.37141\H,0,33.48551,72.97561,28.85768\N,0,33.84444,7
 1.62986,32.8637\C,0,35.24723,71.57575,32.45072\C,0,36.18616,71.25584,3
 3.61857\O,0,35.69999,70.92681,34.69423\H,0,33.6391,71.60932,33.87473\H
 ,0,35.52385,72.55128,32.00918\H,0,35.3894,70.75856,31.7144\N,0,37.5513
 4,71.26881,33.51007\C,0,38.28898,71.79371,32.35767\C,0,38.07621,73.291
 63,32.20016\O,0,38.19091,73.78007,31.08706\C,0,39.79846,71.44746,32.42
 838\C,0,40.52571,71.85186,33.69243\O,0,39.90114,72.51834,34.68259\O,0,
 41.69728,71.54041,33.83191\H,0,38.09015,70.92423,34.31591\H,0,37.8985,
 71.2921,31.44447\H,0,40.32272,71.90531,31.55979\H,0,39.89227,70.34457,
 32.33525\N,0,37.66885,74.06044,33.25252\C,0,37.13799,75.40443,33.10722
 \C,0,38.07848,76.49834,32.66479\O,0,37.58751,77.5133,32.18986\H,0,37.6
 0604,73.63527,34.18808\H,0,36.74082,75.73737,34.08936\H,0,36.27466,75.
 35436,32.41409\N,0,39.41681,76.44801,32.90466\C,0,40.27304,77.59823,32
 .61484\C,0,40.219,77.95184,31.1394\O,0,40.47063,77.09697,30.30803\C,0,
 41.72493,77.41698,33.12143\C,0,42.50416,76.27031,32.46305\O,0,41.73259
 ,77.28873,34.52298\H,0,39.81286,75.60995,33.35155\H,0,39.8832,78.46542
 ,33.19651\H,0,42.27908,78.35467,32.8887\H,0,41.45184,76.36684,34.7559\
 H,0,42.6228,76.44452,31.37509\H,0,43.51909,76.21972,32.90942\H,0,41.99
 542,75.2983,32.62401\N,0,39.82711,79.2026,30.7631\C,0,39.65624,79.6696
 9,29.38044\C,0,41.01865,80.07021,28.74013\O,0,41.14289,81.15878,28.205
 37\C,0,38.58411,80.83533,29.42655\C,0,37.99131,81.31656,28.07636\C,0,3
 9.09051,82.07505,30.21176\C,0,37.03619,80.31625,27.42318\H,0,39.52259,
 79.81512,31.52681\H,0,39.2175,78.83376,28.7912\H,0,37.71515,80.44347,3
 0.00478\H,0,38.78128,81.63584,27.36672\H,0,37.35439,82.20532,28.28792\
 H,0,39.4107,81.85167,31.24551\H,0,39.9362,82.57405,29.70561\H,0,38.269
 44,82.81295,30.31888\H,0,36.5531,80.80059,26.54531\H,0,37.56178,79.402
 73,27.08677\H,0,36.22468,80.04101,28.13395\N,0,42.09173,79.22174,28.79
 711\C,0,43.43346,79.55355,28.29791\C,0,43.52501,79.64647,26.78182\O,0,
 44.57703,80.0292,26.27812\C,0,44.4568,78.47538,28.76905\C,0,44.14672,7
 7.06346,28.21944\O,0,44.47979,78.43466,30.17164\H,0,41.98714,78.33812,
 29.27585\H,0,43.72943,80.53133,28.7401\H,0,45.46187,78.78862,28.40038\
 H,0,45.26452,77.88351,30.42993\H,0,44.96131,76.36175,28.4896\H,0,43.19
 704,76.65333,28.6166\H,0,44.06842,77.06656,27.12253\N,0,42.49923,79.23
 697,25.98692\C,0,42.55205,79.14859,24.53226\C,0,43.53382,78.06959,24.0
 7275\O,0,44.35023,77.61343,24.85725\C,0,42.82224,80.51875,23.84009\C,0
 ,42.03246,81.65638,24.51078\O,0,42.45951,80.4109,22.48476\H,0,41.62553
 ,78.91749,26.4301\H,0,41.53869,78.80929,24.22614\H,0,43.90471,80.7761,
 23.90619\H,0,42.51254,81.31215,22.07307\H,0,42.41789,81.83906,25.53628
 \H,0,42.16444,82.60519,23.94811\H,0,40.95406,81.40603,24.5631\N,0,43.5
 0322,77.61812,22.79049\C,0,44.49778,76.70029,22.252\C,0,44.06006,75.31
 992,21.72939\O,0,44.9748,74.62283,21.30813\C,0,45.24564,77.45152,21.13
 053\C,0,46.23302,78.4775,21.70041\C,0,47.0205,79.10855,20.55237\C,0,48
 .0378,80.14076,21.04012\N,0,48.79871,80.66492,19.90632\H,0,42.82506,78
 .0318,22.14825\H,0,45.24211,76.42318,23.02962\H,0,44.51375,77.94134,20
 .44572\H,0,45.84479,76.74502,20.51969\H,0,46.95001,77.94956,22.37032\H
 ,0,45.69938,79.25292,22.29118\H,0,46.31444,79.60016,19.84948\H,0,47.56
 422,78.30127,20.01222\H,0,48.73853,79.67147,21.76676\H,0,47.50503,80.9
 7375,21.55036\H,0,48.15187,81.11227,19.21642\H,0,49.48309,81.37746,20.
 2457\H,0,49.32172,79.88785,19.43929\N,0,42.80925,74.76432,21.67741\C,0
 ,41.49999,75.27413,22.05424\C,0,41.1224,76.52865,21.31094\O,0,40.46335
 ,77.40028,21.86336\C,0,41.22597,75.16015,23.57836\C,0,39.79021,74.6531
 1,23.83595\C,0,39.56762,74.23267,25.25536\O,0,38.65096,74.84985,26.015
 95\O,0,40.16105,73.26295,25.70244\H,0,42.77827,73.81861,21.25913\H,0,4
 0.82405,74.5206,21.59376\H,0,41.44633,76.10402,24.12406\H,0,41.90451,7
 4.3787,23.98625\H,0,39.60599,73.73057,23.23779\H,0,39.05725,75.42267,2
 3.5224\N,0,41.58662,76.6997,20.03843\C,0,41.35728,77.88607,19.24929\H,
 0,40.67441,78.60398,19.74522\H,0,42.33354,78.38411,19.06464\H,0,40.926
 5,77.58396,18.27266\H,0,42.17457,75.96575,19.61659\Ca,0,38.23656,73.89
 391,28.00899\O,0,35.69516,74.4511,27.40568\H,0,35.4551,75.40438,27.316
 31\H,0,35.22451,73.98965,26.66907\O,0,40.88512,74.57439,28.66203\H,0,4
 0.22408,75.29546,28.80604\H,0,41.08213,74.23444,29.57015\O,0,39.67326,
 71.60836,28.8064\H,0,39.2829,70.77369,29.16675\H,0,40.59515,71.36674,2
 8.54026\O,0,37.28526,71.45814,26.44465\H,0,37.63743,70.5603,26.22511\H
 ,0,36.4155,71.27673,26.87602\O,0,37.54288,76.32462,29.24047\H,0,37.474
 86,75.72865,30.02268\H,0,37.3879,77.22371,29.61627\\Version=ES64L-G16R
 evA.03\State=1-A\HF=-5794.0690358\RMSD=3.518e-10\Dipole=10.5010001,13.
 7437893,-16.3549171\Quadrupole=136.3780802,-154.0058024,17.6277221,57.
 6678889,-287.89298,-40.2469888\PG=C01 [X(C54H99Ca1N15O29)]\\@


 When cryptography is outlawed, bayl bhgynjf jvyy unir cevinpl.
 Job cpu time:       1 days  4 hours 58 minutes 12.6 seconds.
 Elapsed time:       0 days  0 hours 36 minutes 40.1 seconds.
 File lengths (MBytes):  RWF=   1820 Int=      0 D2E=      0 Chk=    204 Scr=      1
 Normal termination of Gaussian 16 at Thu Feb 20 21:42:53 2020.
