 Entering Gaussian System, Link 0=g16
 Initial command:
 /home1/apps/gaussian/16rA.03/g16/l1.exe "/scratch/01990/pengzhi/5265957/Gau-285893.inp" -scrdir="/scratch/01990/pengzhi/5265957/"
 Entering Link 1 = /home1/apps/gaussian/16rA.03/g16/l1.exe PID=    285894.
  
 Copyright (c) 1988,1990,1992,1993,1995,1998,2003,2009,2016,
            Gaussian, Inc.  All Rights Reserved.
  
 This is part of the Gaussian(R) 16 program.  It is based on
 the Gaussian(R) 09 system (copyright 2009, Gaussian, Inc.),
 the Gaussian(R) 03 system (copyright 2003, Gaussian, Inc.),
 the Gaussian(R) 98 system (copyright 1998, Gaussian, Inc.),
 the Gaussian(R) 94 system (copyright 1995, Gaussian, Inc.),
 the Gaussian 92(TM) system (copyright 1992, Gaussian, Inc.),
 the Gaussian 90(TM) system (copyright 1990, Gaussian, Inc.),
 the Gaussian 88(TM) system (copyright 1988, Gaussian, Inc.),
 the Gaussian 86(TM) system (copyright 1986, Carnegie Mellon
 University), and the Gaussian 82(TM) system (copyright 1983,
 Carnegie Mellon University). Gaussian is a federally registered
 trademark of Gaussian, Inc.
  
 This software contains proprietary and confidential information,
 including trade secrets, belonging to Gaussian, Inc.
  
 This software is provided under written license and may be
 used, copied, transmitted, or stored only in accord with that
 written license.
  
 The following legend is applicable only to US Government
 contracts under FAR:
  
                    RESTRICTED RIGHTS LEGEND
  
 Use, reproduction and disclosure by the US Government is
 subject to restrictions as set forth in subparagraphs (a)
 and (c) of the Commercial Computer Software - Restricted
 Rights clause in FAR 52.227-19.
  
 Gaussian, Inc.
 340 Quinnipiac St., Bldg. 40, Wallingford CT 06492
  
  
 ---------------------------------------------------------------
 Warning -- This program may not be used in any manner that
 competes with the business of Gaussian, Inc. or will provide
 assistance to any competitor of Gaussian, Inc.  The licensee
 of this program is prohibited from giving any competitor of
 Gaussian, Inc. access to this program.  By using this program,
 the user acknowledges that Gaussian, Inc. is engaged in the
 business of creating and licensing software in the field of
 computational chemistry and represents and warrants to the
 licensee that it is not a competitor of Gaussian, Inc. and that
 it will not use this program in any manner prohibited above.
 ---------------------------------------------------------------
  

 Cite this work as:
 Gaussian 16, Revision A.03,
 M. J. Frisch, G. W. Trucks, H. B. Schlegel, G. E. Scuseria, 
 M. A. Robb, J. R. Cheeseman, G. Scalmani, V. Barone, 
 G. A. Petersson, H. Nakatsuji, X. Li, M. Caricato, A. V. Marenich, 
 J. Bloino, B. G. Janesko, R. Gomperts, B. Mennucci, H. P. Hratchian, 
 J. V. Ortiz, A. F. Izmaylov, J. L. Sonnenberg, D. Williams-Young, 
 F. Ding, F. Lipparini, F. Egidi, J. Goings, B. Peng, A. Petrone, 
 T. Henderson, D. Ranasinghe, V. G. Zakrzewski, J. Gao, N. Rega, 
 G. Zheng, W. Liang, M. Hada, M. Ehara, K. Toyota, R. Fukuda, 
 J. Hasegawa, M. Ishida, T. Nakajima, Y. Honda, O. Kitao, H. Nakai, 
 T. Vreven, K. Throssell, J. A. Montgomery, Jr., J. E. Peralta, 
 F. Ogliaro, M. J. Bearpark, J. J. Heyd, E. N. Brothers, K. N. Kudin, 
 V. N. Staroverov, T. A. Keith, R. Kobayashi, J. Normand, 
 K. Raghavachari, A. P. Rendell, J. C. Burant, S. S. Iyengar, 
 J. Tomasi, M. Cossi, J. M. Millam, M. Klene, C. Adamo, R. Cammi, 
 J. W. Ochterski, R. L. Martin, K. Morokuma, O. Farkas, 
 J. B. Foresman, and D. J. Fox, Gaussian, Inc., Wallingford CT, 2016.
 
 ******************************************
 Gaussian 16:  ES64L-G16RevA.03 25-Dec-2016
                20-Feb-2020 
 ******************************************
 %chk=loop1.cluster0.chk
 %nprocshared=48
 Will use up to   48 processors via shared memory.
 %mem=10GB
 %nosave
 ----------------------------------------------------------------------
 #b3lyp/svp scf=(tight,noincore) Test #IOP(5/87=12) Density=Current Pop
 =(MK,readradii) iop(6/33=2) iop(6/42=6)
 ----------------------------------------------------------------------
 1/30=1,38=1,172=1/1;
 2/12=2,17=6,18=5,40=1/2;
 3/5=18,7=101,11=2,25=1,30=1,74=-5/1,2,3;
 4//1;
 5/5=4,32=2,38=5,87=12/2;
 6/7=2,8=2,9=2,10=2,15=8,20=101,22=-1,28=1,33=2,42=6/1,2;
 99/5=1,9=1/99;
 --------------
 loop1.cluster0
 --------------
 Symbolic Z-matrix:
 Charge =  0 Multiplicity = 1
 C                     71.08307   43.37376   25.79142 
 C                     72.12769   42.77107   24.9017 
 O                     71.97832   41.6392   24.47393 
 H                     70.1915   42.71825   25.86826 
 H                     71.51417   43.5217   26.80495 
 H                     70.7758   44.3615   25.38644 
 N                     73.22319   43.50652   24.58022 
 C                     74.3398   43.04329   23.75772 
 C                     75.32659   42.29111   24.64216 
 O                     76.42903   42.76294   24.88927 
 C                     74.91695   44.29172   23.05145 
 C                     76.22294   44.13088   22.34091 
 O                     77.16014   44.83364   22.67455 
 O                     76.40139   43.25986   21.34175 
 H                     73.25788   44.47368   24.93823 
 H                     73.99708   42.35792   22.95006 
 H                     75.08959   45.07856   23.81539 
 H                     74.15752   44.66614   22.33104 
 N                     74.97383   41.08075   25.14996 
 C                     75.82643   40.26129   25.99894 
 C                     77.09715   39.87049   25.26078 
 O                     78.17305   40.03085   25.81336 
 C                     75.02908   39.01764   26.4632 
 C                     73.88258   39.4433   27.4071 
 C                     72.96206   38.27223   27.77118 
 C                     71.96378   38.64876   28.88234 
 N                     70.92537   39.57853   28.43051 
 H                     74.05299   40.70364   24.89476 
 H                     76.11429   40.82009   26.9196 
 H                     75.68927   38.31996   27.02596 
 H                     74.62931   38.4784   25.57641 
 H                     73.26843   40.24455   26.95169 
 H                     74.34716   39.84941   28.33382 
 H                     73.59325   37.44417   28.15563 
 H                     72.41884   37.90884   26.86943 
 H                     72.52248   39.08639   29.73985 
 H                     71.46779   37.72139   29.24213 
 H                     70.32838   39.83649   29.24978 
 H                     71.33173   40.45458   28.03486 
 H                     70.32195   39.11183   27.71492 
 N                     77.03808   39.34643   24.00127 
 C                     78.24971   38.92599   23.28302 
 C                     79.13544   40.08213   22.8109 
 O                     80.29141   39.82572   22.49041 
 C                     77.91186   37.90257   22.18185 
 C                     76.90937   38.36568   21.17757 
 O                     76.32665   37.54638   20.48724 
 O                     76.61588   39.66722   21.05907 
 H                     76.11446   39.20573   23.56996 
 H                     78.86252   38.34719   24.00862 
 H                     77.46509   37.0275   22.69966 
 H                     78.82383   37.55617   21.64961 
 N                     78.72009   41.3824   22.83582 
 C                     79.66111   42.49193   22.72002 
 C                     80.17358   42.79778   21.32186 
 O                     81.32896   42.54861   21.02586 
 H                     77.74763   41.59185   23.10557 
 H                     80.50947   42.30197   23.4084 
 H                     79.17978   43.41827   23.09219 
 N                     79.36172   43.45223   20.45478 
 C                     79.73061   43.93154   19.13292 
 C                     79.12009   45.32145   18.83129 
 O                     79.25492   45.77575   17.6999 
 C                     79.30767   42.87321   18.08726 
 C                     77.92905   42.29823   18.29955 
 O                     76.88193   43.09575   18.52379 
 O                     77.7722   41.08975   18.34311 
 H                     78.42026   43.63399   20.74646 
 H                     80.83104   44.04758   19.03749 
 H                     80.01471   42.01812   18.15115 
 H                     79.41088   43.30307   17.06773 
 N                     78.47613   46.07836   19.7788 
 C                     77.87955   47.37384   19.47507 
 C                     76.62946   47.27646   18.61821 
 O                     76.19861   48.28892   18.0887 
 H                     78.43434   45.76277   20.75506 
 H                     78.64125   48.03165   19.00329 
 H                     77.55521   47.87122   20.41657 
 N                     75.95514   46.09584   18.50264 
 C                     74.66387   45.97371   17.82903 
 C                     73.68323   45.14395   18.65458 
 O                     74.08187   44.20908   19.33202 
 C                     74.7652   45.41695   16.36526 
 C                     74.45802   46.50594   15.34766 
 O                     76.03643   44.92243   16.03648 
 H                     76.31133   45.28245   19.00905 
 H                     74.18999   46.97793   17.79003 
 H                     73.99101   44.6327   16.1951 
 H                     76.26954   44.23618   16.69339 
 H                     73.45389   46.93984   15.53647 
 H                     75.23134   47.29982   15.40878 
 H                     74.46695   46.06707   14.32642 
 N                     72.34874   45.40804   18.55279 
 C                     71.29623   44.63441   19.20523 
 C                     70.49074   43.94887   18.10188 
 O                     69.9889   44.62639   17.21601 
 C                     70.4034   45.58588   20.06604 
 C                     71.2055   46.18444   21.25514 
 C                     69.12825   44.8719   20.55993 
 C                     70.42308   47.25854   22.02151 
 H                     72.05403   46.1851   17.9433 
 H                     71.71566   43.8572   19.88105 
 H                     70.0774   46.42419   19.41216 
 H                     72.1211   46.67313   20.86088 
 H                     71.5216   45.38677   21.96585 
 H                     69.37612   44.00422   21.20551 
 H                     68.46608   45.56588   21.11386 
 H                     68.52621   44.52404   19.69691 
 H                     69.5607   46.8253   22.56826 
 H                     71.08097   47.74492   22.77186 
 H                     70.05683   48.03707   21.31853 
 N                     70.2992   42.59683   18.12583 
 C                     69.49277   41.87051   17.15381 
 C                     68.08482   41.72232   17.69744 
 O                     67.82447   42.153    18.8079 
 C                     70.09158   40.45248   16.88241 
 C                     71.55106   40.50645   16.4183 
 O                     69.96834   39.65528   18.03611 
 H                     70.62102   42.07865   18.93611 
 H                     69.44874   42.43812   16.20014 
 H                     69.5017   39.97047   16.07539 
 H                     70.75063   39.05199   18.1339 
 H                     71.89261   39.4835   16.14373 
 H                     71.66402   41.16973   15.53905 
 H                     72.18221   40.85285   17.25984 
 N                     67.11652   41.10838   16.9693 
 C                     65.7887   40.84076   17.51833 
 C                     65.8737   39.86019   18.68978 
 O                     65.14144   40.02076   19.65624 
 C                     64.82313   40.31385   16.42775 
 C                     64.52028   41.41619   15.38631 
 O                     65.35458   39.14921   15.83467 
 H                     67.33854   40.80174   16.0103 
 H                     65.34107   41.78795   17.89717 
 H                     63.85389   40.06219   16.91173 
 H                     65.10019   39.12126   14.87519 
 H                     64.12478   42.32572   15.8887 
 H                     65.42657   41.69194   14.80811 
 H                     63.74095   41.06218   14.67752 
 N                     66.73821   38.80453   18.652 
 C                     66.84811   37.81434   19.72547 
 C                     67.39062   38.42557   21.01136 
 O                     66.85891   38.15962   22.07921 
 C                     67.69621   36.61246   19.23204 
 C                     67.59024   35.39879   20.17727 
 C                     67.91916   34.0565   19.49245 
 C                     69.40298   33.74835   19.25216 
 N                     70.14284   33.65295   20.51313 
 H                     67.32643   38.68519   17.81332 
 H                     65.83148   37.40622   19.92116 
 H                     68.75435   36.88538   19.02423 
 H                     67.22646   36.3105   18.27017 
 H                     66.52171   35.30363   20.46281 
 H                     68.16883   35.55117   21.11382 
 H                     67.3677   33.99728   18.52723 
 H                     67.52231   33.24002   20.13322 
 H                     69.87854   34.49296   18.57774 
 H                     69.44251   32.75713   18.74417 
 H                     70.34683   34.60882   20.88143 
 H                     69.59775   33.11011   21.22319 
 H                     71.0464   33.15411   20.34654 
 N                     68.43649   39.29124   20.96224 
 C                     68.98787   39.97063   22.13325 
 C                     67.91288   40.82395   22.77257 
 O                     67.66198   40.68535   23.96193 
 C                     70.2159   40.80311   21.71506 
 C                     71.32155   39.84912   21.21567 
 C                     72.53663   40.55859   20.76838 
 O                     72.48129   41.41397   19.90899 
 O                     73.72087   40.25058   21.27482 
 H                     68.82077   39.51561   20.04158 
 H                     69.34931   39.22748   22.8782 
 H                     70.5938   41.38726   22.57219 
 H                     69.92749   41.53423   20.9333 
 H                     70.97146   39.26148   20.35608 
 H                     71.6078   39.14188   22.02177 
 N                     67.18919   41.68803   22.0148 
 C                     66.05898   42.42183   22.53268 
 H                     65.26197   41.70841   22.83625 
 H                     66.36234   43.04619   23.39654 
 H                     65.64735   43.07785   21.73524 
 H                     67.41568   41.78736   21.02384 
 Ca                    75.11344   41.74008   20.54073 
 O                     74.94553   39.28569   18.37188 
 H                     74.73512   38.62001   17.67118 
 H                     74.67556   38.84262   19.21304 
 O                     74.50261   41.97086   17.04857 
 H                     75.04752   41.47826   16.38569 
 H                     73.72383   42.29333   16.53107 
 
 Stoichiometry    C54H93CaN15O26
 Framework group  C1[X(C54H93CaN15O26)]
 Deg. of freedom   561
 Full point group                 C1      NOp   1
 Largest Abelian subgroup         C1      NOp   1
 Largest concise Abelian subgroup C1      NOp   1
                         Standard orientation:                         
 ---------------------------------------------------------------------
 Center     Atomic      Atomic             Coordinates (Angstroms)
 Number     Number       Type             X           Y           Z
 ---------------------------------------------------------------------
      1          6           0        0.403814    2.809780    4.905586
      2          6           0       -0.241143    2.546134    3.578714
      3          8           0        0.327077    2.879659    2.552890
      4          1           0        1.434740    3.200361    4.782568
      5          1           0       -0.204267    3.556521    5.460196
      6          1           0        0.438169    1.868712    5.494878
      7          7           0       -1.450121    1.928396    3.545134
      8          6           0       -2.217431    1.639165    2.334562
      9          6           0       -3.036874    2.868901    1.963043
     10          8           0       -4.256591    2.862023    2.069364
     11          6           0       -3.046090    0.367530    2.629121
     12          6           0       -4.104541   -0.001498    1.639249
     13          8           0       -5.257160   -0.091614    2.022499
     14          8           0       -3.837123   -0.254412    0.353417
     15          1           0       -1.847619    1.630515    4.449587
     16          1           0       -1.552136    1.387096    1.478205
     17          1           0       -3.578073    0.510913    3.592948
     18          1           0       -2.343871   -0.486848    2.742443
     19          7           0       -2.399190    3.976831    1.501391
     20          6           0       -3.066179    5.209087    1.106577
     21          6           0       -4.013820    4.954485   -0.055098
     22          8           0       -5.156700    5.376165    0.012969
     23          6           0       -1.995557    6.269434    0.749641
     24          6           0       -1.207206    6.675439    2.014654
     25          6           0       -0.029079    7.603270    1.694555
     26          6           0        0.610408    8.182700    2.970616
     27          7           0        1.353915    7.184964    3.744333
     28          1           0       -1.378227    3.933597    1.396266
     29          1           0       -3.657325    5.623188    1.956166
     30          1           0       -2.477089    7.186700    0.342141
     31          1           0       -1.311353    5.862032   -0.026813
     32          1           0       -0.818547    5.784174    2.544909
     33          1           0       -1.915623    7.199801    2.694918
     34          1           0       -0.414036    8.455718    1.097038
     35          1           0        0.735283    7.067034    1.087516
     36          1           0       -0.185273    8.640134    3.600405
     37          1           0        1.314503    8.991525    2.678170
     38          1           0        1.701746    7.634437    4.622474
     39          1           0        0.755586    6.372022    4.009395
     40          1           0        2.178583    6.854341    3.192423
     41          7           0       -3.594830    4.267661   -1.158372
     42          6           0       -4.480868    4.042356   -2.309405
     43          6           0       -5.604878    3.035250   -2.051696
     44          8           0       -6.553311    3.022194   -2.829533
     45          6           0       -3.666293    3.762109   -3.586916
     46          6           0       -2.721062    2.610825   -3.491426
     47          8           0       -1.806907    2.514861   -4.292976
     48          8           0       -2.844566    1.708404   -2.509301
     49          1           0       -2.619447    3.941656   -1.193676
     50          1           0       -4.981503    5.013423   -2.517819
     51          1           0       -3.049538    4.668349   -3.765299
     52          1           0       -4.324924    3.617263   -4.470197
     53          7           0       -5.636426    2.238276   -0.943691
     54          6           0       -6.852702    1.546112   -0.529485
     55          6           0       -7.211691    0.290415   -1.307543
     56          8           0       -8.165702    0.292367   -2.065476
     57          1           0       -4.836578    2.253148   -0.293818
     58          1           0       -7.692039    2.270244   -0.557983
     59          1           0       -6.757085    1.245642    0.532998
     60          7           0       -6.527184   -0.853443   -1.057969
     61          6           0       -6.819344   -2.164148   -1.614592
     62          6           0       -6.646294   -3.288886   -0.565505
     63          8           0       -6.741373   -4.450844   -0.946851
     64          6           0       -5.922726   -2.385612   -2.855307
     65          6           0       -4.483461   -1.972580   -2.670422
     66          8           0       -3.794822   -2.354751   -1.592227
     67          8           0       -3.957163   -1.219433   -3.472110
     68          1           0       -5.750868   -0.802129   -0.426177
     69          1           0       -7.870041   -2.227891   -1.968839
     70          1           0       -6.319997   -1.765458   -3.687623
     71          1           0       -5.997860   -3.446426   -3.177645
     72          7           0       -6.434112   -3.042709    0.768567
     73          6           0       -6.243563   -4.111009    1.742658
     74          6           0       -4.910635   -4.825112    1.602029
     75          8           0       -4.749293   -5.889121    2.179041
     76          1           0       -6.446186   -2.080692    1.127460
     77          1           0       -7.092334   -4.825953    1.680052
     78          1           0       -6.246156   -3.688923    2.772630
     79          7           0       -3.884840   -4.253630    0.906989
     80          6           0       -2.534053   -4.810485    0.870488
     81          6           0       -1.480774   -3.727332    1.092007
     82          8           0       -1.659869   -2.595268    0.669896
     83          6           0       -2.222698   -5.627614   -0.432673
     84          6           0       -2.125388   -7.115824   -0.130134
     85          8           0       -3.201409   -5.494757   -1.429241
     86          1           0       -4.036473   -3.333814    0.487619
     87          1           0       -2.406262   -5.483625    1.745185
     88          1           0       -1.221828   -5.346413   -0.835859
     89          1           0       -3.302116   -4.541569   -1.624432
     90          1           0       -1.355117   -7.303156    0.646901
     91          1           0       -3.111540   -7.489405    0.216197
     92          1           0       -1.834308   -7.660048   -1.054640
     93          7           0       -0.302180   -4.067207    1.688974
     94          6           0        0.827280   -3.160655    1.874554
     95          6           0        1.971187   -3.681696    1.004982
     96          8           0        2.361501   -4.831276    1.152499
     97          6           0        1.223334   -3.119389    3.386133
     98          6           0        0.097057   -2.478017    4.243886
     99          6           0        2.566490   -2.391260    3.599353
    100          6           0        0.365414   -2.577537    5.750961
    101          1           0       -0.180331   -5.042252    1.999773
    102          1           0        0.578585   -2.123600    1.559309
    103          1           0        1.361752   -4.168994    3.726383
    104          1           0       -0.853534   -3.017789    4.049966
    105          1           0       -0.053958   -1.408629    3.970189
    106          1           0        2.511777   -1.336319    3.259961
    107          1           0        2.877120   -2.420621    4.662162
    108          1           0        3.374824   -2.910546    3.046904
    109          1           0        1.224780   -1.946341    6.056595
    110          1           0       -0.521870   -2.227170    6.318748
    111          1           0        0.568215   -3.632967    6.032684
    112          7           0        2.578873   -2.859938    0.099054
    113          6           0        3.716244   -3.252228   -0.722645
    114          6           0        4.994816   -2.836458   -0.021072
    115          8           0        4.927433   -2.235265    1.037424
    116          6           0        3.652385   -2.565928   -2.125483
    117          6           0        2.343401   -2.857837   -2.866928
    118          8           0        3.842823   -1.178191   -1.985267
    119          1           0        2.317617   -1.880037    0.085934
    120          1           0        3.724405   -4.355024   -0.854480
    121          1           0        4.483537   -2.958816   -2.747094
    122          1           0        3.289414   -0.677696   -2.640051
    123          1           0        2.394116   -2.431989   -3.893843
    124          1           0        2.162653   -3.947703   -2.939747
    125          1           0        1.511673   -2.352537   -2.338314
    126          7           0        6.209541   -3.115275   -0.560904
    127          6           0        7.450580   -2.617073    0.028823
    128          6           0        7.502279   -1.088912   -0.026757
    129          8           0        7.984752   -0.473917    0.914005
    130          6           0        8.691373   -3.235786   -0.661793
    131          6           0        8.784081   -4.750652   -0.365051
    132          8           0        8.659536   -2.962809   -2.045642
    133          1           0        6.249486   -3.674140   -1.426396
    134          1           0        7.506995   -2.922338    1.098726
    135          1           0        9.602315   -2.772083   -0.223431
    136          1           0        9.055672   -3.726004   -2.542337
    137          1           0        8.784575   -4.931264    0.731963
    138          1           0        7.938943   -5.308348   -0.819398
    139          1           0        9.736053   -5.157101   -0.769537
    140          7           0        7.037820   -0.416456   -1.120056
    141          6           0        7.084585    1.041653   -1.248991
    142          6           0        6.181790    1.732785   -0.234727
    143          8           0        6.597448    2.700915    0.384708
    144          6           0        6.753198    1.439801   -2.711496
    145          6           0        7.093160    2.915131   -3.003917
    146          6           0        7.321710    3.207584   -4.500963
    147          6           0        6.070927    3.313868   -5.383382
    148          7           0        5.213565    4.426973   -4.968092
    149          1           0        6.656875   -0.965748   -1.905414
    150          1           0        8.134759    1.367684   -1.078019
    151          1           0        5.709356    1.188954   -3.002702
    152          1           0        7.438613    0.824232   -3.334650
    153          1           0        8.077755    3.119441   -2.533623
    154          1           0        6.357807    3.609125   -2.542680
    155          1           0        8.006379    2.436574   -4.920529
    156          1           0        7.853919    4.179679   -4.581576
    157          1           0        5.493382    2.364381   -5.402401
    158          1           0        6.430116    3.512852   -6.419492
    159          1           0        4.659849    4.156705   -4.124707
    160          1           0        5.786011    5.277613   -4.756669
    161          1           0        4.554593    4.663673   -5.744457
    162          7           0        4.935127    1.248702    0.004303
    163          6           0        4.020137    1.808177    0.997599
    164          6           0        4.652325    1.719470    2.370537
    165          8           0        4.745886    2.727976    3.056759
    166          6           0        2.671330    1.064972    0.931803
    167          6           0        2.020889    1.327802   -0.442896
    168          6           0        0.728058    0.634883   -0.611083
    169          8           0        0.640071   -0.567870   -0.473488
    170          8           0       -0.359096    1.311083   -0.949650
    171          1           0        4.647627    0.411461   -0.507555
    172          1           0        3.803979    2.875161    0.768072
    173          1           0        1.997822    1.420075    1.731178
    174          1           0        2.828816   -0.018494    1.105482
    175          1           0        2.669905    0.974930   -1.255938
    176          1           0        1.853992    2.415984   -0.584070
    177          7           0        5.170359    0.542218    2.806764
    178          6           0        5.911295    0.425286    4.040206
    179          1           0        6.837051    1.037769    3.975498
    180          1           0        5.293543    0.755869    4.898812
    181          1           0        6.210402   -0.634426    4.192710
    182          1           0        5.081268   -0.286996    2.217160
    183         20           0       -2.022602   -0.067479   -0.779167
    184          8           0       -0.742901   -0.317248   -3.788505
    185          1           0       -0.224218   -0.486500   -4.613553
    186          1           0       -0.479908    0.597618   -3.522799
    187          8           0       -0.981598   -3.022669   -2.453896
    188          1           0       -1.230073   -3.210175   -3.393094
    189          1           0       -0.276285   -3.686137   -2.252315
 ---------------------------------------------------------------------
 Rotational constants (GHZ):           0.0213799           0.0134815           0.0110339
 Standard basis: SVP (5D, 7F)
 There are  1904 symmetry adapted cartesian basis functions of A   symmetry.
 There are  1809 symmetry adapted basis functions of A   symmetry.
  1809 basis functions,  3067 primitive gaussians,  1904 cartesian basis functions
   375 alpha electrons      375 beta electrons
       nuclear repulsion energy     23160.0491672613 Hartrees.
 NAtoms=  189 NActive=  189 NUniq=  189 SFac= 1.00D+00 NAtFMM=   60 NAOKFM=T Big=T
 Integral buffers will be    131072 words long.
 Raffenetti 2 integral format.
 Two-electron integral symmetry is turned on.
 One-electron integrals computed using PRISM.
 NBasis=  1809 RedAO= T EigKep=  7.53D-04  NBF=  1809
 NBsUse=  1809 1.00D-06 EigRej= -1.00D+00 NBFU=  1809
 ExpMin= 1.98D-02 ExpMax= 3.51D+04 ExpMxC= 5.28D+03 IAcc=3 IRadAn=         5 AccDes= 0.00D+00
 Harris functional with IExCor=  402 and IRadAn=       5 diagonalized for initial guess.
 HarFok:  IExCor=  402 AccDes= 0.00D+00 IRadAn=         5 IDoV= 1 UseB2=F ITyADJ=14
 ICtDFT=  3500011 ScaDFX=  1.000000  1.000000  1.000000  1.000000
 FoFCou: FMM=F IPFlag=           0 FMFlag=      100000 FMFlg1=        2001
         NFxFlg=           0 DoJE=T BraDBF=F KetDBF=T FulRan=T
         wScrn=  0.000000 ICntrl=       500 IOpCl=  0 I1Cent=   200000004 NGrid=           0
         NMat0=    1 NMatS0=      1 NMatT0=    0 NMatD0=    1 NMtDS0=    0 NMtDT0=    0
 Petite list used in FoFCou.
 Requested convergence on RMS density matrix=1.00D-08 within 128 cycles.
 Requested convergence on MAX density matrix=1.00D-06.
 Requested convergence on             energy=1.00D-06.
 No special actions if energy rises.
 Rare condition: small coef for last iteration:  0.000D+00
 EnCoef did   100 forward-backward iterations
 EnCoef did   100 forward-backward iterations
 EnCoef did     3 forward-backward iterations
 EnCoef did     2 forward-backward iterations
 EnCoef did     2 forward-backward iterations
 EnCoef did     1 forward-backward iterations
 EnCoef did     5 forward-backward iterations
 EnCoef did    10 forward-backward iterations
 EnCoef did    21 forward-backward iterations
 EnCoef did    45 forward-backward iterations
 EnCoef did   100 forward-backward iterations
 EnCoef did   100 forward-backward iterations
 EnCoef did   100 forward-backward iterations
 Rare condition: small coef for last iteration: -0.518D-15
 Restarting incremental Fock formation.
 EnCoef did   100 forward-backward iterations
 EnCoef did   100 forward-backward iterations
 EnCoef did   100 forward-backward iterations
 EnCoef did     7 forward-backward iterations
 Rare condition: small coef for last iteration:  0.666D-15
 EnCoef did    34 forward-backward iterations
 Rare condition: small coef for last iteration:  0.000D+00
 EnCoef did   100 forward-backward iterations
 EnCoef did   100 forward-backward iterations
 EnCoef did   100 forward-backward iterations
 EnCoef did   100 forward-backward iterations
 EnCoef did   100 forward-backward iterations
 EnCoef did   100 forward-backward iterations
 EnCoef did   100 forward-backward iterations
 Rare condition: small coef for last iteration:  0.270D-14
 EnCoef did   100 forward-backward iterations
 EnCoef did   100 forward-backward iterations
 EnCoef did   100 forward-backward iterations
 EnCoef did     6 forward-backward iterations
 Rare condition: small coef for last iteration:  0.000D+00
 EnCoef did   100 forward-backward iterations
 Rare condition: small coef for last iteration:  0.000D+00
 EnCoef did   100 forward-backward iterations
 Restarting incremental Fock formation.
 EnCoef did   100 forward-backward iterations
 EnCoef did   100 forward-backward iterations
 Rare condition: small coef for last iteration:  0.000D+00
 EnCoef did   100 forward-backward iterations
 EnCoef did     2 forward-backward iterations
 EnCoef did     2 forward-backward iterations
 Rare condition: small coef for last iteration: -0.222D-15
 EnCoef did   100 forward-backward iterations
 EnCoef did   100 forward-backward iterations
 Rare condition: small coef for last iteration:  0.000D+00
 EnCoef did   100 forward-backward iterations
 Rare condition: small coef for last iteration: -0.296D-16
 EnCoef did   100 forward-backward iterations
 EnCoef did     3 forward-backward iterations
 Restarting incremental Fock formation.
 SCF Done:  E(RB3LYP) =  -5564.95797055     A.U. after   68 cycles
            NFock= 68  Conv=0.23D-08     -V/T= 2.0088
 SCF density gives NOpUse=  1 NOpAll=  1.
 Hyperfine terms turned off by default for NAtoms > 100.

 **********************************************************************

            Population analysis using the SCF density.

 **********************************************************************

 Orbital symmetries:
 BldTbl:  Degeneracy threshold= 1.00D-02
       Occupied  (A) (A) (A) (A) (A) (A) (A) (A) (A) (A) (A) (A)
                 (A) (A) (A) (A) (A) (A) (A) (A) (A) (A) (A) (A)
                 (A) (A) (A) (A) (A) (A) (A) (A) (A) (A) (A) (A)
                 (A) (A) (A) (A) (A) (A) (A) (A) (A) (A) (A) (A)
                 (A) (A) (A) (A) (A) (A) (A) (A) (A) (A) (A) (A)
                 (A) (A) (A) (A) (A) (A) (A) (A) (A) (A) (A) (A)
                 (A) (A) (A) (A) (A) (A) (A) (A) (A) (A) (A) (A)
                 (A) (A) (A) (A) (A) (A) (A) (A) (A) (A) (A) (A)
                 (A) (A) (A) (A) (A) (A) (A) (A) (A) (A) (A) (A)
                 (A) (A) (A) (A) (A) (A) (A) (A) (A) (A) (A) (A)
                 (A) (A) (A) (A) (A) (A) (A) (A) (A) (A) (A) (A)
                 (A) (A) (A) (A) (A) (A) (A) (A) (A) (A) (A) (A)
                 (A) (A) (A) (A) (A) (A) (A) (A) (A) (A) (A) (A)
                 (A) (A) (A) (A) (A) (A) (A) (A) (A) (A) (A) (A)
                 (A) (A) (A) (A) (A) (A) (A) (A) (A) (A) (A) (A)
                 (A) (A) (A) (A) (A) (A) (A) (A) (A) (A) (A) (A)
                 (A) (A) (A) (A) (A) (A) (A) (A) (A) (A) (A) (A)
                 (A) (A) (A) (A) (A) (A) (A) (A) (A) (A) (A) (A)
                 (A) (A) (A) (A) (A) (A) (A) (A) (A) (A) (A) (A)
                 (A) (A) (A) (A) (A) (A) (A) (A) (A) (A) (A) (A)
                 (A) (A) (A) (A) (A) (A) (A) (A) (A) (A) (A) (A)
                 (A) (A) (A) (A) (A) (A) (A) (A) (A) (A) (A) (A)
                 (A) (A) (A) (A) (A) (A) (A) (A) (A) (A) (A) (A)
                 (A) (A) (A) (A) (A) (A) (A) (A) (A) (A) (A) (A)
                 (A) (A) (A) (A) (A) (A) (A) (A) (A) (A) (A) (A)
                 (A) (A) (A) (A) (A) (A) (A) (A) (A) (A) (A) (A)
                 (A) (A) (A) (A) (A) (A) (A) (A) (A) (A) (A) (A)
                 (A) (A) (A) (A) (A) (A) (A) (A) (A) (A) (A) (A)
                 (A) (A) (A) (A) (A) (A) (A) (A) (A) (A) (A) (A)
                 (A) (A) (A) (A) (A) (A) (A) (A) (A) (A) (A) (A)
                 (A) (A) (A) (A) (A) (A) (A) (A) (A) (A) (A) (A)
                 (A) (A) (A)
       Virtual   (A) (A) (A) (A) (A) (A) (A) (A) (A) (A) (A) (A)
                 (A) (A) (A) (A) (A) (A) (A) (A) (A) (A) (A) (A)
                 (A) (A) (A) (A) (A) (A) (A) (A) (A) (A) (A) (A)
                 (A) (A) (A) (A) (A) (A) (A) (A) (A) (A) (A) (A)
                 (A) (A) (A) (A) (A) (A) (A) (A) (A) (A) (A) (A)
                 (A) (A) (A) (A) (A) (A) (A) (A) (A) (A) (A) (A)
                 (A) (A) (A) (A) (A) (A) (A) (A) (A) (A) (A) (A)
                 (A) (A) (A) (A) (A) (A) (A) (A) (A) (A) (A) (A)
                 (A) (A) (A) (A) (A) (A) (A) (A) (A) (A) (A) (A)
                 (A) (A) (A) (A) (A) (A) (A) (A) (A) (A) (A) (A)
                 (A) (A) (A) (A) (A) (A) (A) (A) (A) (A) (A) (A)
                 (A) (A) (A) (A) (A) (A) (A) (A) (A) (A) (A) (A)
                 (A) (A) (A) (A) (A) (A) (A) (A) (A) (A) (A) (A)
                 (A) (A) (A) (A) (A) (A) (A) (A) (A) (A) (A) (A)
                 (A) (A) (A) (A) (A) (A) (A) (A) (A) (A) (A) (A)
                 (A) (A) (A) (A) (A) (A) (A) (A) (A) (A) (A) (A)
                 (A) (A) (A) (A) (A) (A) (A) (A) (A) (A) (A) (A)
                 (A) (A) (A) (A) (A) (A) (A) (A) (A) (A) (A) (A)
                 (A) (A) (A) (A) (A) (A) (A) (A) (A) (A) (A) (A)
                 (A) (A) (A) (A) (A) (A) (A) (A) (A) (A) (A) (A)
                 (A) (A) (A) (A) (A) (A) (A) (A) (A) (A) (A) (A)
                 (A) (A) (A) (A) (A) (A) (A) (A) (A) (A) (A) (A)
                 (A) (A) (A) (A) (A) (A) (A) (A) (A) (A) (A) (A)
                 (A) (A) (A) (A) (A) (A) (A) (A) (A) (A) (A) (A)
                 (A) (A) (A) (A) (A) (A) (A) (A) (A) (A) (A) (A)
                 (A) (A) (A) (A) (A) (A) (A) (A) (A) (A) (A) (A)
                 (A) (A) (A) (A) (A) (A) (A) (A) (A) (A) (A) (A)
                 (A) (A) (A) (A) (A) (A) (A) (A) (A) (A) (A) (A)
                 (A) (A) (A) (A) (A) (A) (A) (A) (A) (A) (A) (A)
                 (A) (A) (A) (A) (A) (A) (A) (A) (A) (A) (A) (A)
                 (A) (A) (A) (A) (A) (A) (A) (A) (A) (A) (A) (A)
                 (A) (A) (A) (A) (A) (A) (A) (A) (A) (A) (A) (A)
                 (A) (A) (A) (A) (A) (A) (A) (A) (A) (A) (A) (A)
                 (A) (A) (A) (A) (A) (A) (A) (A) (A) (A) (A) (A)
                 (A) (A) (A) (A) (A) (A) (A) (A) (A) (A) (A) (A)
                 (A) (A) (A) (A) (A) (A) (A) (A) (A) (A) (A) (A)
                 (A) (A) (A) (A) (A) (A) (A) (A) (A) (A) (A) (A)
                 (A) (A) (A) (A) (A) (A) (A) (A) (A) (A) (A) (A)
                 (A) (A) (A) (A) (A) (A) (A) (A) (A) (A) (A) (A)
                 (A) (A) (A) (A) (A) (A) (A) (A) (A) (A) (A) (A)
                 (A) (A) (A) (A) (A) (A) (A) (A) (A) (A) (A) (A)
                 (A) (A) (A) (A) (A) (A) (A) (A) (A) (A) (A) (A)
                 (A) (A) (A) (A) (A) (A) (A) (A) (A) (A) (A) (A)
                 (A) (A) (A) (A) (A) (A) (A) (A) (A) (A) (A) (A)
                 (A) (A) (A) (A) (A) (A) (A) (A) (A) (A) (A) (A)
                 (A) (A) (A) (A) (A) (A) (A) (A) (A) (A) (A) (A)
                 (A) (A) (A) (A) (A) (A) (A) (A) (A) (A) (A) (A)
                 (A) (A) (A) (A) (A) (A) (A) (A) (A) (A) (A) (A)
                 (A) (A) (A) (A) (A) (A) (A) (A) (A) (A) (A) (A)
                 (A) (A) (A) (A) (A) (A) (A) (A) (A) (A) (A) (A)
                 (A) (A) (A) (A) (A) (A) (A) (A) (A) (A) (A) (A)
                 (A) (A) (A) (A) (A) (A) (A) (A) (A) (A) (A) (A)
                 (A) (A) (A) (A) (A) (A) (A) (A) (A) (A) (A) (A)
                 (A) (A) (A) (A) (A) (A) (A) (A) (A) (A) (A) (A)
                 (A) (A) (A) (A) (A) (A) (A) (A) (A) (A) (A) (A)
                 (A) (A) (A) (A) (A) (A) (A) (A) (A) (A) (A) (A)
                 (A) (A) (A) (A) (A) (A) (A) (A) (A) (A) (A) (A)
                 (A) (A) (A) (A) (A) (A) (A) (A) (A) (A) (A) (A)
                 (A) (A) (A) (A) (A) (A) (A) (A) (A) (A) (A) (A)
                 (A) (A) (A) (A) (A) (A) (A) (A) (A) (A) (A) (A)
                 (A) (A) (A) (A) (A) (A) (A) (A) (A) (A) (A) (A)
                 (A) (A) (A) (A) (A) (A) (A) (A) (A) (A) (A) (A)
                 (A) (A) (A) (A) (A) (A) (A) (A) (A) (A) (A) (A)
                 (A) (A) (A) (A) (A) (A) (A) (A) (A) (A) (A) (A)
                 (A) (A) (A) (A) (A) (A) (A) (A) (A) (A) (A) (A)
                 (A) (A) (A) (A) (A) (A) (A) (A) (A) (A) (A) (A)
                 (A) (A) (A) (A) (A) (A) (A) (A) (A) (A) (A) (A)
                 (A) (A) (A) (A) (A) (A) (A) (A) (A) (A) (A) (A)
                 (A) (A) (A) (A) (A) (A) (A) (A) (A) (A) (A) (A)
                 (A) (A) (A) (A) (A) (A) (A) (A) (A) (A) (A) (A)
                 (A) (A) (A) (A) (A) (A) (A) (A) (A) (A) (A) (A)
                 (A) (A) (A) (A) (A) (A) (A) (A) (A) (A) (A) (A)
                 (A) (A) (A) (A) (A) (A) (A) (A) (A) (A) (A) (A)
                 (A) (A) (A) (A) (A) (A) (A) (A) (A) (A) (A) (A)
                 (A) (A) (A) (A) (A) (A) (A) (A) (A) (A) (A) (A)
                 (A) (A) (A) (A) (A) (A) (A) (A) (A) (A) (A) (A)
                 (A) (A) (A) (A) (A) (A) (A) (A) (A) (A) (A) (A)
                 (A) (A) (A) (A) (A) (A) (A) (A) (A) (A) (A) (A)
                 (A) (A) (A) (A) (A) (A) (A) (A) (A) (A) (A) (A)
                 (A) (A) (A) (A) (A) (A) (A) (A) (A) (A) (A) (A)
                 (A) (A) (A) (A) (A) (A) (A) (A) (A) (A) (A) (A)
                 (A) (A) (A) (A) (A) (A) (A) (A) (A) (A) (A) (A)
                 (A) (A) (A) (A) (A) (A) (A) (A) (A) (A) (A) (A)
                 (A) (A) (A) (A) (A) (A) (A) (A) (A) (A) (A) (A)
                 (A) (A) (A) (A) (A) (A) (A) (A) (A) (A) (A) (A)
                 (A) (A) (A) (A) (A) (A) (A) (A) (A) (A) (A) (A)
                 (A) (A) (A) (A) (A) (A) (A) (A) (A) (A) (A) (A)
                 (A) (A) (A) (A) (A) (A) (A) (A) (A) (A) (A) (A)
                 (A) (A) (A) (A) (A) (A) (A) (A) (A) (A) (A) (A)
                 (A) (A) (A) (A) (A) (A) (A) (A) (A) (A) (A) (A)
                 (A) (A) (A) (A) (A) (A) (A) (A) (A) (A) (A) (A)
                 (A) (A) (A) (A) (A) (A) (A) (A) (A) (A) (A) (A)
                 (A) (A) (A) (A) (A) (A) (A) (A) (A) (A) (A) (A)
                 (A) (A) (A) (A) (A) (A) (A) (A) (A) (A) (A) (A)
                 (A) (A) (A) (A) (A) (A) (A) (A) (A) (A) (A) (A)
                 (A) (A) (A) (A) (A) (A) (A) (A) (A) (A) (A) (A)
                 (A) (A) (A) (A) (A) (A) (A) (A) (A) (A) (A) (A)
                 (A) (A) (A) (A) (A) (A) (A) (A) (A) (A) (A) (A)
                 (A) (A) (A) (A) (A) (A) (A) (A) (A) (A) (A) (A)
                 (A) (A) (A) (A) (A) (A) (A) (A) (A) (A) (A) (A)
                 (A) (A) (A) (A) (A) (A) (A) (A) (A) (A) (A) (A)
                 (A) (A) (A) (A) (A) (A) (A) (A) (A) (A) (A) (A)
                 (A) (A) (A) (A) (A) (A) (A) (A) (A) (A) (A) (A)
                 (A) (A) (A) (A) (A) (A) (A) (A) (A) (A) (A) (A)
                 (A) (A) (A) (A) (A) (A) (A) (A) (A) (A) (A) (A)
                 (A) (A) (A) (A) (A) (A) (A) (A) (A) (A) (A) (A)
                 (A) (A) (A) (A) (A) (A) (A) (A) (A) (A) (A) (A)
                 (A) (A) (A) (A) (A) (A) (A) (A) (A) (A) (A) (A)
                 (A) (A) (A) (A) (A) (A) (A) (A) (A) (A) (A) (A)
                 (A) (A) (A) (A) (A) (A) (A) (A) (A) (A) (A) (A)
                 (A) (A) (A) (A) (A) (A) (A) (A) (A) (A) (A) (A)
                 (A) (A) (A) (A) (A) (A) (A) (A) (A) (A) (A) (A)
                 (A) (A) (A) (A) (A) (A) (A) (A) (A) (A) (A) (A)
                 (A) (A) (A) (A) (A) (A) (A) (A) (A) (A) (A) (A)
                 (A) (A) (A) (A) (A) (A) (A) (A) (A) (A) (A) (A)
                 (A) (A) (A) (A) (A) (A) (A) (A) (A) (A) (A) (A)
                 (A) (A) (A) (A) (A) (A) (A) (A) (A) (A) (A) (A)
                 (A) (A) (A) (A) (A) (A) (A) (A) (A) (A) (A) (A)
                 (A) (A) (A) (A) (A) (A) (A) (A) (A) (A) (A) (A)
                 (A) (A) (A) (A) (A) (A)
 The electronic state is 1-A.
 Alpha  occ. eigenvalues -- -145.27846 -19.18268 -19.18139 -19.12943 -19.12746
 Alpha  occ. eigenvalues --  -19.11847 -19.11124 -19.09303 -19.08738 -19.08529
 Alpha  occ. eigenvalues --  -19.08157 -19.07819 -19.06963 -19.05788 -19.05743
 Alpha  occ. eigenvalues --  -19.05222 -19.05047 -19.02269 -19.02241 -19.02086
 Alpha  occ. eigenvalues --  -19.01246 -19.00206 -18.99037 -18.99027 -18.98359
 Alpha  occ. eigenvalues --  -18.98343 -18.97655 -15.34011 -14.58931 -14.57847
 Alpha  occ. eigenvalues --  -14.38865 -14.38287 -14.38156 -14.36616 -14.35667
 Alpha  occ. eigenvalues --  -14.34436 -14.34051 -14.33347 -14.31284 -14.27782
 Alpha  occ. eigenvalues --  -14.27629 -14.26094 -14.24410 -12.47625 -12.47588
 Alpha  occ. eigenvalues --  -12.47434 -10.36109 -10.35868 -10.31596 -10.30995
 Alpha  occ. eigenvalues --  -10.30731 -10.29955 -10.29698 -10.29022 -10.28614
 Alpha  occ. eigenvalues --  -10.28106 -10.27699 -10.27437 -10.27306 -10.27238
 Alpha  occ. eigenvalues --  -10.27203 -10.26709 -10.26329 -10.26124 -10.26095
 Alpha  occ. eigenvalues --  -10.25484 -10.25449 -10.24878 -10.24647 -10.24064
 Alpha  occ. eigenvalues --  -10.24055 -10.23702 -10.23554 -10.22862 -10.22494
 Alpha  occ. eigenvalues --  -10.21791 -10.21646 -10.21324 -10.20315 -10.20094
 Alpha  occ. eigenvalues --  -10.19894 -10.19435 -10.18915 -10.18757 -10.18329
 Alpha  occ. eigenvalues --  -10.18110 -10.18019 -10.17968 -10.17858 -10.17770
 Alpha  occ. eigenvalues --  -10.17580 -10.17186 -10.17146 -10.17138 -10.16824
 Alpha  occ. eigenvalues --  -10.14932 -10.13324 -10.12742 -10.12501 -10.09292
 Alpha  occ. eigenvalues --   -1.71859  -1.12675  -1.11934  -1.06620  -1.06093
 Alpha  occ. eigenvalues --   -1.05762  -1.05283  -1.04873  -1.03996  -1.03282
 Alpha  occ. eigenvalues --   -1.02494  -1.01795  -1.01422  -1.00072  -0.99915
 Alpha  occ. eigenvalues --   -0.99300  -0.99183  -0.98951  -0.96149  -0.95558
 Alpha  occ. eigenvalues --   -0.94902  -0.94084  -0.94009  -0.93933  -0.93431
 Alpha  occ. eigenvalues --   -0.93243  -0.92574  -0.92567  -0.92234  -0.92035
 Alpha  occ. eigenvalues --   -0.91998  -0.91917  -0.90821  -0.90345  -0.89543
 Alpha  occ. eigenvalues --   -0.89314  -0.89249  -0.89074  -0.88848  -0.86477
 Alpha  occ. eigenvalues --   -0.85199  -0.84051  -0.83570  -0.82748  -0.82235
 Alpha  occ. eigenvalues --   -0.81516  -0.81148  -0.80942  -0.80399  -0.80344
 Alpha  occ. eigenvalues --   -0.79799  -0.79373  -0.79325  -0.78379  -0.77660
 Alpha  occ. eigenvalues --   -0.76425  -0.74610  -0.74515  -0.73421  -0.73271
 Alpha  occ. eigenvalues --   -0.72345  -0.72043  -0.71691  -0.71463  -0.71030
 Alpha  occ. eigenvalues --   -0.70800  -0.70412  -0.69239  -0.68765  -0.68189
 Alpha  occ. eigenvalues --   -0.68117  -0.67914  -0.66394  -0.66205  -0.65929
 Alpha  occ. eigenvalues --   -0.64853  -0.64112  -0.63602  -0.63424  -0.62974
 Alpha  occ. eigenvalues --   -0.62886  -0.62340  -0.61892  -0.61554  -0.61257
 Alpha  occ. eigenvalues --   -0.61167  -0.60293  -0.59916  -0.59450  -0.58704
 Alpha  occ. eigenvalues --   -0.58585  -0.56731  -0.56698  -0.56608  -0.56042
 Alpha  occ. eigenvalues --   -0.55782  -0.55482  -0.55032  -0.54820  -0.54718
 Alpha  occ. eigenvalues --   -0.54658  -0.54134  -0.54003  -0.53422  -0.53412
 Alpha  occ. eigenvalues --   -0.53004  -0.52567  -0.52485  -0.52325  -0.51654
 Alpha  occ. eigenvalues --   -0.51208  -0.50885  -0.50572  -0.50369  -0.50120
 Alpha  occ. eigenvalues --   -0.50102  -0.49874  -0.49557  -0.49438  -0.49250
 Alpha  occ. eigenvalues --   -0.48981  -0.48673  -0.48404  -0.48344  -0.48186
 Alpha  occ. eigenvalues --   -0.48068  -0.47954  -0.47428  -0.46978  -0.46917
 Alpha  occ. eigenvalues --   -0.46423  -0.46220  -0.46107  -0.46032  -0.45876
 Alpha  occ. eigenvalues --   -0.45648  -0.45412  -0.45278  -0.45223  -0.45203
 Alpha  occ. eigenvalues --   -0.44684  -0.44656  -0.44487  -0.44409  -0.44254
 Alpha  occ. eigenvalues --   -0.43930  -0.43896  -0.43548  -0.43258  -0.43208
 Alpha  occ. eigenvalues --   -0.43048  -0.42762  -0.42687  -0.42514  -0.42375
 Alpha  occ. eigenvalues --   -0.42266  -0.42043  -0.41949  -0.41796  -0.41712
 Alpha  occ. eigenvalues --   -0.41570  -0.41381  -0.41216  -0.41063  -0.40978
 Alpha  occ. eigenvalues --   -0.40820  -0.40781  -0.40697  -0.40212  -0.40035
 Alpha  occ. eigenvalues --   -0.39887  -0.39842  -0.39694  -0.39347  -0.39200
 Alpha  occ. eigenvalues --   -0.39118  -0.38926  -0.38860  -0.38730  -0.38628
 Alpha  occ. eigenvalues --   -0.38418  -0.38312  -0.38206  -0.37993  -0.37969
 Alpha  occ. eigenvalues --   -0.37588  -0.37456  -0.37377  -0.37223  -0.36985
 Alpha  occ. eigenvalues --   -0.36906  -0.36863  -0.36500  -0.36096  -0.36049
 Alpha  occ. eigenvalues --   -0.35757  -0.35718  -0.35505  -0.35354  -0.35211
 Alpha  occ. eigenvalues --   -0.35116  -0.34854  -0.34601  -0.34305  -0.34255
 Alpha  occ. eigenvalues --   -0.33976  -0.33420  -0.33343  -0.33020  -0.32928
 Alpha  occ. eigenvalues --   -0.32407  -0.32264  -0.32088  -0.32058  -0.31926
 Alpha  occ. eigenvalues --   -0.31862  -0.31742  -0.31591  -0.31420  -0.31321
 Alpha  occ. eigenvalues --   -0.31281  -0.30977  -0.30938  -0.30467  -0.30316
 Alpha  occ. eigenvalues --   -0.29756  -0.29665  -0.29561  -0.29342  -0.28931
 Alpha  occ. eigenvalues --   -0.28688  -0.28486  -0.28311  -0.28109  -0.28089
 Alpha  occ. eigenvalues --   -0.26925  -0.26876  -0.26795  -0.26502  -0.26398
 Alpha  occ. eigenvalues --   -0.26209  -0.26174  -0.25837  -0.25766  -0.25284
 Alpha  occ. eigenvalues --   -0.25029  -0.24532  -0.24430  -0.24365  -0.24041
 Alpha  occ. eigenvalues --   -0.23951  -0.23101  -0.22487  -0.22406  -0.22220
 Alpha  occ. eigenvalues --   -0.22175  -0.21544  -0.21069  -0.20239  -0.19920
 Alpha  occ. eigenvalues --   -0.19888  -0.18623  -0.18276  -0.17693  -0.17382
 Alpha  occ. eigenvalues --   -0.16990  -0.16149  -0.15884  -0.15471  -0.15302
 Alpha  occ. eigenvalues --   -0.14914  -0.14584  -0.14064  -0.12817  -0.12302
 Alpha virt. eigenvalues --   -0.11391  -0.11330  -0.05874  -0.05701  -0.05605
 Alpha virt. eigenvalues --   -0.05296  -0.02872  -0.02162  -0.01640  -0.01550
 Alpha virt. eigenvalues --   -0.01040  -0.00856  -0.00399  -0.00080   0.00449
 Alpha virt. eigenvalues --    0.00925   0.01027   0.01215   0.01651   0.02231
 Alpha virt. eigenvalues --    0.02442   0.02559   0.02775   0.02984   0.03106
 Alpha virt. eigenvalues --    0.03996   0.04467   0.04485   0.04703   0.04964
 Alpha virt. eigenvalues --    0.04999   0.05219   0.05362   0.05461   0.05512
 Alpha virt. eigenvalues --    0.05760   0.06037   0.06393   0.06696   0.06779
 Alpha virt. eigenvalues --    0.07144   0.07457   0.07567   0.07756   0.08027
 Alpha virt. eigenvalues --    0.08209   0.08304   0.08556   0.08682   0.08834
 Alpha virt. eigenvalues --    0.08997   0.09036   0.09377   0.09462   0.09755
 Alpha virt. eigenvalues --    0.09834   0.09934   0.09952   0.10066   0.10397
 Alpha virt. eigenvalues --    0.10501   0.10977   0.11136   0.11340   0.11579
 Alpha virt. eigenvalues --    0.11717   0.11776   0.11941   0.12129   0.12341
 Alpha virt. eigenvalues --    0.12460   0.12751   0.12836   0.13040   0.13244
 Alpha virt. eigenvalues --    0.13264   0.13607   0.13863   0.13976   0.14103
 Alpha virt. eigenvalues --    0.14287   0.14426   0.14555   0.14818   0.14978
 Alpha virt. eigenvalues --    0.15043   0.15081   0.15330   0.15397   0.15767
 Alpha virt. eigenvalues --    0.15844   0.15859   0.16070   0.16160   0.16555
 Alpha virt. eigenvalues --    0.16815   0.16883   0.17141   0.17244   0.17283
 Alpha virt. eigenvalues --    0.17492   0.17714   0.17883   0.17952   0.18181
 Alpha virt. eigenvalues --    0.18560   0.18715   0.19169   0.19206   0.19329
 Alpha virt. eigenvalues --    0.19418   0.19623   0.19779   0.19814   0.19962
 Alpha virt. eigenvalues --    0.20051   0.20243   0.20389   0.20513   0.20637
 Alpha virt. eigenvalues --    0.20890   0.21192   0.21285   0.21457   0.21570
 Alpha virt. eigenvalues --    0.21928   0.22149   0.22362   0.22819   0.22958
 Alpha virt. eigenvalues --    0.23148   0.23162   0.23383   0.23660   0.23794
 Alpha virt. eigenvalues --    0.23981   0.24211   0.24503   0.24693   0.24747
 Alpha virt. eigenvalues --    0.25273   0.25435   0.25592   0.25759   0.26066
 Alpha virt. eigenvalues --    0.26254   0.26386   0.26535   0.26661   0.27046
 Alpha virt. eigenvalues --    0.27106   0.27307   0.27741   0.28058   0.28147
 Alpha virt. eigenvalues --    0.28195   0.28282   0.28736   0.28748   0.28776
 Alpha virt. eigenvalues --    0.29189   0.29287   0.29304   0.29693   0.29835
 Alpha virt. eigenvalues --    0.30192   0.30340   0.30569   0.30676   0.31012
 Alpha virt. eigenvalues --    0.31307   0.31624   0.31752   0.32153   0.33054
 Alpha virt. eigenvalues --    0.33213   0.33390   0.33594   0.33904   0.33988
 Alpha virt. eigenvalues --    0.34348   0.34461   0.34792   0.35074   0.35394
 Alpha virt. eigenvalues --    0.35605   0.35834   0.36154   0.36285   0.36452
 Alpha virt. eigenvalues --    0.36533   0.36845   0.37438   0.37863   0.38034
 Alpha virt. eigenvalues --    0.38276   0.38605   0.38708   0.38975   0.39203
 Alpha virt. eigenvalues --    0.39410   0.39680   0.39905   0.39992   0.40113
 Alpha virt. eigenvalues --    0.40448   0.40539   0.40855   0.41163   0.41235
 Alpha virt. eigenvalues --    0.41878   0.41949   0.42169   0.42504   0.42655
 Alpha virt. eigenvalues --    0.42905   0.43005   0.43162   0.43548   0.43627
 Alpha virt. eigenvalues --    0.43800   0.43840   0.44123   0.44385   0.44434
 Alpha virt. eigenvalues --    0.44830   0.44909   0.45083   0.45294   0.45587
 Alpha virt. eigenvalues --    0.45713   0.45800   0.46204   0.46231   0.46585
 Alpha virt. eigenvalues --    0.46673   0.47213   0.47391   0.47476   0.47714
 Alpha virt. eigenvalues --    0.47789   0.48116   0.48242   0.48604   0.48791
 Alpha virt. eigenvalues --    0.49018   0.49177   0.49207   0.49481   0.49591
 Alpha virt. eigenvalues --    0.49809   0.49958   0.50077   0.50385   0.50496
 Alpha virt. eigenvalues --    0.50620   0.50929   0.51156   0.51324   0.51474
 Alpha virt. eigenvalues --    0.51668   0.51743   0.51775   0.52135   0.52316
 Alpha virt. eigenvalues --    0.52421   0.52619   0.52901   0.53124   0.53171
 Alpha virt. eigenvalues --    0.53372   0.53644   0.54068   0.54157   0.54232
 Alpha virt. eigenvalues --    0.54541   0.54743   0.54875   0.55005   0.55155
 Alpha virt. eigenvalues --    0.55270   0.55609   0.55747   0.55965   0.55982
 Alpha virt. eigenvalues --    0.56069   0.56281   0.56329   0.56466   0.56613
 Alpha virt. eigenvalues --    0.56886   0.57176   0.57328   0.57441   0.57598
 Alpha virt. eigenvalues --    0.57883   0.58086   0.58121   0.58181   0.58276
 Alpha virt. eigenvalues --    0.58405   0.58437   0.58583   0.58802   0.59026
 Alpha virt. eigenvalues --    0.59133   0.59191   0.59289   0.59483   0.59534
 Alpha virt. eigenvalues --    0.59612   0.59891   0.59949   0.60164   0.60317
 Alpha virt. eigenvalues --    0.60441   0.60599   0.60673   0.60825   0.60967
 Alpha virt. eigenvalues --    0.61035   0.61170   0.61254   0.61403   0.61521
 Alpha virt. eigenvalues --    0.61712   0.61740   0.61977   0.62154   0.62332
 Alpha virt. eigenvalues --    0.62497   0.62561   0.62709   0.62730   0.62895
 Alpha virt. eigenvalues --    0.63008   0.63170   0.63228   0.63341   0.63516
 Alpha virt. eigenvalues --    0.63706   0.63870   0.63922   0.63960   0.64063
 Alpha virt. eigenvalues --    0.64110   0.64402   0.64518   0.64664   0.64700
 Alpha virt. eigenvalues --    0.64933   0.65001   0.65112   0.65187   0.65308
 Alpha virt. eigenvalues --    0.65358   0.65618   0.65781   0.65903   0.65999
 Alpha virt. eigenvalues --    0.66023   0.66257   0.66426   0.66451   0.66549
 Alpha virt. eigenvalues --    0.66606   0.66935   0.67062   0.67151   0.67233
 Alpha virt. eigenvalues --    0.67324   0.67395   0.67634   0.67798   0.67880
 Alpha virt. eigenvalues --    0.68055   0.68336   0.68408   0.68471   0.68757
 Alpha virt. eigenvalues --    0.68893   0.68971   0.69087   0.69263   0.69592
 Alpha virt. eigenvalues --    0.69677   0.69757   0.69865   0.70045   0.70169
 Alpha virt. eigenvalues --    0.70316   0.70450   0.70655   0.70719   0.70886
 Alpha virt. eigenvalues --    0.70965   0.71146   0.71217   0.71394   0.71576
 Alpha virt. eigenvalues --    0.71872   0.71961   0.72063   0.72295   0.72360
 Alpha virt. eigenvalues --    0.72510   0.72735   0.72901   0.73086   0.73145
 Alpha virt. eigenvalues --    0.73350   0.73461   0.73630   0.73812   0.73860
 Alpha virt. eigenvalues --    0.73907   0.74317   0.74355   0.74459   0.74577
 Alpha virt. eigenvalues --    0.74694   0.74921   0.75146   0.75246   0.75407
 Alpha virt. eigenvalues --    0.75528   0.75661   0.75760   0.75860   0.76036
 Alpha virt. eigenvalues --    0.76434   0.76606   0.76704   0.76803   0.76967
 Alpha virt. eigenvalues --    0.77234   0.77562   0.77682   0.77840   0.78397
 Alpha virt. eigenvalues --    0.78519   0.78581   0.78689   0.78863   0.78931
 Alpha virt. eigenvalues --    0.79512   0.79630   0.79747   0.80097   0.80337
 Alpha virt. eigenvalues --    0.80517   0.80646   0.80971   0.81075   0.81513
 Alpha virt. eigenvalues --    0.81827   0.82012   0.82429   0.82647   0.82734
 Alpha virt. eigenvalues --    0.83109   0.83474   0.83586   0.83898   0.84309
 Alpha virt. eigenvalues --    0.84352   0.84783   0.84948   0.85305   0.85525
 Alpha virt. eigenvalues --    0.85696   0.86069   0.86544   0.86739   0.86934
 Alpha virt. eigenvalues --    0.87083   0.87374   0.87635   0.87889   0.88178
 Alpha virt. eigenvalues --    0.88656   0.88736   0.89122   0.89478   0.89991
 Alpha virt. eigenvalues --    0.90196   0.90324   0.90603   0.90790   0.91160
 Alpha virt. eigenvalues --    0.91551   0.91870   0.92205   0.92519   0.92779
 Alpha virt. eigenvalues --    0.93087   0.93335   0.93710   0.94261   0.94452
 Alpha virt. eigenvalues --    0.94591   0.94876   0.95099   0.95363   0.95825
 Alpha virt. eigenvalues --    0.95994   0.96387   0.96624   0.96798   0.96843
 Alpha virt. eigenvalues --    0.97099   0.97556   0.97710   0.98011   0.98334
 Alpha virt. eigenvalues --    0.98776   0.99107   0.99385   0.99640   0.99891
 Alpha virt. eigenvalues --    1.00060   1.00303   1.00582   1.00875   1.01015
 Alpha virt. eigenvalues --    1.01564   1.01630   1.01759   1.01788   1.02003
 Alpha virt. eigenvalues --    1.02718   1.03000   1.03550   1.03867   1.04298
 Alpha virt. eigenvalues --    1.04329   1.04708   1.04800   1.05196   1.05312
 Alpha virt. eigenvalues --    1.05651   1.06137   1.06704   1.06816   1.07019
 Alpha virt. eigenvalues --    1.07349   1.07396   1.07928   1.08164   1.08516
 Alpha virt. eigenvalues --    1.08693   1.08860   1.09071   1.09178   1.09562
 Alpha virt. eigenvalues --    1.09667   1.10031   1.10182   1.10391   1.10918
 Alpha virt. eigenvalues --    1.11103   1.11247   1.11443   1.11641   1.11841
 Alpha virt. eigenvalues --    1.12016   1.12114   1.12488   1.13033   1.13172
 Alpha virt. eigenvalues --    1.13507   1.13695   1.14069   1.14374   1.14409
 Alpha virt. eigenvalues --    1.14684   1.14812   1.15682   1.15826   1.15919
 Alpha virt. eigenvalues --    1.15950   1.16198   1.16521   1.16667   1.16693
 Alpha virt. eigenvalues --    1.17356   1.17443   1.17650   1.17750   1.18068
 Alpha virt. eigenvalues --    1.18540   1.18662   1.19038   1.19215   1.19416
 Alpha virt. eigenvalues --    1.19457   1.19815   1.19900   1.20072   1.20283
 Alpha virt. eigenvalues --    1.20623   1.20636   1.21245   1.21340   1.21534
 Alpha virt. eigenvalues --    1.21999   1.22173   1.22227   1.22319   1.22676
 Alpha virt. eigenvalues --    1.22780   1.23083   1.23257   1.23615   1.23884
 Alpha virt. eigenvalues --    1.24005   1.24063   1.24417   1.24686   1.25218
 Alpha virt. eigenvalues --    1.25325   1.25385   1.25629   1.25959   1.26258
 Alpha virt. eigenvalues --    1.27044   1.27120   1.27361   1.27531   1.27707
 Alpha virt. eigenvalues --    1.27875   1.28079   1.28211   1.28827   1.29103
 Alpha virt. eigenvalues --    1.29264   1.29695   1.29897   1.30002   1.30107
 Alpha virt. eigenvalues --    1.30511   1.30802   1.31090   1.31226   1.31384
 Alpha virt. eigenvalues --    1.31622   1.31864   1.32181   1.32289   1.32407
 Alpha virt. eigenvalues --    1.32722   1.32904   1.33486   1.33900   1.34205
 Alpha virt. eigenvalues --    1.34371   1.34578   1.35014   1.35117   1.35357
 Alpha virt. eigenvalues --    1.35655   1.35761   1.35988   1.36148   1.36282
 Alpha virt. eigenvalues --    1.36542   1.36806   1.36966   1.37357   1.37574
 Alpha virt. eigenvalues --    1.37794   1.38116   1.38249   1.38595   1.38678
 Alpha virt. eigenvalues --    1.39205   1.39796   1.40130   1.40479   1.40581
 Alpha virt. eigenvalues --    1.40641   1.41025   1.41324   1.41754   1.41987
 Alpha virt. eigenvalues --    1.42030   1.42344   1.42743   1.42977   1.43487
 Alpha virt. eigenvalues --    1.43825   1.44083   1.44224   1.44476   1.44876
 Alpha virt. eigenvalues --    1.44992   1.45012   1.45533   1.46228   1.46534
 Alpha virt. eigenvalues --    1.46568   1.46738   1.46996   1.47712   1.47800
 Alpha virt. eigenvalues --    1.48030   1.48514   1.48795   1.48831   1.48998
 Alpha virt. eigenvalues --    1.49374   1.49816   1.50085   1.50339   1.50358
 Alpha virt. eigenvalues --    1.50610   1.51061   1.51325   1.51459   1.51580
 Alpha virt. eigenvalues --    1.51886   1.51914   1.52145   1.52334   1.52612
 Alpha virt. eigenvalues --    1.52883   1.53124   1.53505   1.53839   1.54012
 Alpha virt. eigenvalues --    1.54816   1.54934   1.55431   1.55920   1.56389
 Alpha virt. eigenvalues --    1.56478   1.56627   1.57032   1.57402   1.57549
 Alpha virt. eigenvalues --    1.57896   1.58097   1.58342   1.59135   1.59262
 Alpha virt. eigenvalues --    1.59431   1.59674   1.60121   1.60233   1.60487
 Alpha virt. eigenvalues --    1.60677   1.61133   1.61571   1.61858   1.61897
 Alpha virt. eigenvalues --    1.61985   1.62125   1.62339   1.62751   1.62865
 Alpha virt. eigenvalues --    1.63097   1.63295   1.63477   1.63815   1.63992
 Alpha virt. eigenvalues --    1.64441   1.64928   1.65207   1.65436   1.65644
 Alpha virt. eigenvalues --    1.65809   1.65866   1.65928   1.66150   1.66431
 Alpha virt. eigenvalues --    1.66594   1.66952   1.67017   1.67123   1.67277
 Alpha virt. eigenvalues --    1.68209   1.68321   1.68567   1.68690   1.68804
 Alpha virt. eigenvalues --    1.69267   1.69321   1.69370   1.69708   1.70089
 Alpha virt. eigenvalues --    1.70314   1.70569   1.70761   1.70846   1.70905
 Alpha virt. eigenvalues --    1.71027   1.71415   1.71593   1.71796   1.71960
 Alpha virt. eigenvalues --    1.71994   1.72161   1.72378   1.72772   1.73112
 Alpha virt. eigenvalues --    1.73354   1.73405   1.73512   1.73711   1.74007
 Alpha virt. eigenvalues --    1.74177   1.74306   1.74559   1.74637   1.74764
 Alpha virt. eigenvalues --    1.74931   1.75072   1.75318   1.75438   1.75613
 Alpha virt. eigenvalues --    1.75814   1.76092   1.76240   1.76527   1.76573
 Alpha virt. eigenvalues --    1.77077   1.77153   1.77262   1.77429   1.77644
 Alpha virt. eigenvalues --    1.77748   1.77874   1.78089   1.78436   1.78459
 Alpha virt. eigenvalues --    1.78590   1.78784   1.78949   1.79210   1.79428
 Alpha virt. eigenvalues --    1.79531   1.79678   1.79747   1.79861   1.79987
 Alpha virt. eigenvalues --    1.80302   1.80429   1.80492   1.80695   1.80838
 Alpha virt. eigenvalues --    1.81000   1.81021   1.81147   1.81172   1.81191
 Alpha virt. eigenvalues --    1.81484   1.81708   1.81912   1.82029   1.82187
 Alpha virt. eigenvalues --    1.82261   1.82521   1.82574   1.82645   1.83009
 Alpha virt. eigenvalues --    1.83096   1.83205   1.83371   1.83421   1.83589
 Alpha virt. eigenvalues --    1.83975   1.84000   1.84118   1.84369   1.84602
 Alpha virt. eigenvalues --    1.84928   1.85017   1.85197   1.85333   1.85422
 Alpha virt. eigenvalues --    1.85539   1.85803   1.86077   1.86157   1.86339
 Alpha virt. eigenvalues --    1.86459   1.86683   1.86850   1.86885   1.87386
 Alpha virt. eigenvalues --    1.87510   1.87693   1.87902   1.88120   1.88362
 Alpha virt. eigenvalues --    1.88741   1.88848   1.89124   1.89288   1.89457
 Alpha virt. eigenvalues --    1.89532   1.89612   1.89752   1.90153   1.90345
 Alpha virt. eigenvalues --    1.90453   1.90684   1.90767   1.91077   1.91296
 Alpha virt. eigenvalues --    1.91377   1.91603   1.91740   1.91874   1.92115
 Alpha virt. eigenvalues --    1.92158   1.92632   1.92722   1.92928   1.93035
 Alpha virt. eigenvalues --    1.93300   1.93419   1.93674   1.93786   1.94082
 Alpha virt. eigenvalues --    1.94329   1.94501   1.94641   1.94853   1.95183
 Alpha virt. eigenvalues --    1.95441   1.95495   1.95619   1.95763   1.95876
 Alpha virt. eigenvalues --    1.96257   1.96323   1.96568   1.96814   1.97156
 Alpha virt. eigenvalues --    1.97306   1.97394   1.97593   1.97857   1.98464
 Alpha virt. eigenvalues --    1.98526   1.98559   1.99067   1.99121   1.99298
 Alpha virt. eigenvalues --    1.99889   2.00103   2.00133   2.00361   2.00494
 Alpha virt. eigenvalues --    2.00764   2.00999   2.01569   2.01681   2.01717
 Alpha virt. eigenvalues --    2.02030   2.02042   2.02201   2.02472   2.02544
 Alpha virt. eigenvalues --    2.02884   2.03031   2.03316   2.03603   2.03727
 Alpha virt. eigenvalues --    2.04065   2.04643   2.04884   2.05443   2.05625
 Alpha virt. eigenvalues --    2.05747   2.06054   2.06293   2.06408   2.06661
 Alpha virt. eigenvalues --    2.06700   2.07021   2.07365   2.07487   2.07564
 Alpha virt. eigenvalues --    2.08030   2.08230   2.08318   2.08564   2.08760
 Alpha virt. eigenvalues --    2.09000   2.09220   2.09570   2.09829   2.09972
 Alpha virt. eigenvalues --    2.10207   2.10573   2.10646   2.11038   2.11112
 Alpha virt. eigenvalues --    2.11571   2.11760   2.11935   2.12442   2.12837
 Alpha virt. eigenvalues --    2.13277   2.13414   2.13455   2.13684   2.14609
 Alpha virt. eigenvalues --    2.14699   2.15075   2.15269   2.15475   2.15661
 Alpha virt. eigenvalues --    2.16020   2.16110   2.16328   2.16825   2.17207
 Alpha virt. eigenvalues --    2.17697   2.17787   2.18043   2.18367   2.18696
 Alpha virt. eigenvalues --    2.18845   2.19400   2.19774   2.19954   2.20183
 Alpha virt. eigenvalues --    2.20316   2.20535   2.20802   2.21008   2.21326
 Alpha virt. eigenvalues --    2.22086   2.22127   2.22912   2.23097   2.23273
 Alpha virt. eigenvalues --    2.23554   2.23831   2.24034   2.24575   2.25220
 Alpha virt. eigenvalues --    2.25280   2.25726   2.25836   2.25931   2.26474
 Alpha virt. eigenvalues --    2.26719   2.26963   2.27289   2.27653   2.27818
 Alpha virt. eigenvalues --    2.28107   2.28647   2.29058   2.29108   2.29212
 Alpha virt. eigenvalues --    2.29500   2.29936   2.30114   2.30463   2.30697
 Alpha virt. eigenvalues --    2.30987   2.31596   2.32011   2.32401   2.32715
 Alpha virt. eigenvalues --    2.33303   2.33462   2.33944   2.34043   2.34328
 Alpha virt. eigenvalues --    2.34604   2.34799   2.35025   2.35335   2.35475
 Alpha virt. eigenvalues --    2.35575   2.36020   2.36196   2.36733   2.37411
 Alpha virt. eigenvalues --    2.37706   2.37940   2.38056   2.38480   2.38716
 Alpha virt. eigenvalues --    2.38967   2.39154   2.39758   2.39848   2.40203
 Alpha virt. eigenvalues --    2.40251   2.40854   2.41212   2.41584   2.41658
 Alpha virt. eigenvalues --    2.42439   2.42631   2.43186   2.43319   2.43455
 Alpha virt. eigenvalues --    2.43790   2.44096   2.44297   2.44794   2.45171
 Alpha virt. eigenvalues --    2.45488   2.45630   2.46079   2.46334   2.46464
 Alpha virt. eigenvalues --    2.46493   2.46743   2.47314   2.47485   2.47850
 Alpha virt. eigenvalues --    2.48349   2.48706   2.48904   2.49240   2.49553
 Alpha virt. eigenvalues --    2.49670   2.50150   2.50569   2.50735   2.51385
 Alpha virt. eigenvalues --    2.51659   2.51985   2.52131   2.52373   2.52795
 Alpha virt. eigenvalues --    2.52994   2.53191   2.53352   2.53821   2.54066
 Alpha virt. eigenvalues --    2.54412   2.54826   2.55156   2.55412   2.55490
 Alpha virt. eigenvalues --    2.55620   2.55880   2.56351   2.56665   2.56867
 Alpha virt. eigenvalues --    2.57189   2.57728   2.57774   2.58324   2.58710
 Alpha virt. eigenvalues --    2.58982   2.59157   2.59606   2.59901   2.60021
 Alpha virt. eigenvalues --    2.60497   2.60710   2.60778   2.61268   2.61388
 Alpha virt. eigenvalues --    2.62340   2.62456   2.63027   2.63567   2.64111
 Alpha virt. eigenvalues --    2.64565   2.64609   2.64783   2.64952   2.65339
 Alpha virt. eigenvalues --    2.65849   2.66119   2.66636   2.66670   2.67143
 Alpha virt. eigenvalues --    2.67471   2.67939   2.68068   2.68490   2.68538
 Alpha virt. eigenvalues --    2.68668   2.69569   2.69968   2.70645   2.70866
 Alpha virt. eigenvalues --    2.70991   2.71284   2.71513   2.71898   2.72201
 Alpha virt. eigenvalues --    2.72734   2.72900   2.73050   2.73333   2.73473
 Alpha virt. eigenvalues --    2.73588   2.74226   2.74390   2.75140   2.75259
 Alpha virt. eigenvalues --    2.75441   2.76158   2.76296   2.76388   2.76713
 Alpha virt. eigenvalues --    2.76825   2.77078   2.77225   2.77492   2.77575
 Alpha virt. eigenvalues --    2.77733   2.77893   2.78115   2.78157   2.78441
 Alpha virt. eigenvalues --    2.78934   2.79178   2.79239   2.79781   2.79966
 Alpha virt. eigenvalues --    2.79991   2.80319   2.80603   2.80650   2.80683
 Alpha virt. eigenvalues --    2.80757   2.81424   2.81488   2.81841   2.82120
 Alpha virt. eigenvalues --    2.82193   2.82802   2.82966   2.83207   2.83613
 Alpha virt. eigenvalues --    2.83808   2.83961   2.84105   2.84297   2.84516
 Alpha virt. eigenvalues --    2.85052   2.85119   2.85641   2.86124   2.86307
 Alpha virt. eigenvalues --    2.86393   2.86655   2.86864   2.86964   2.87220
 Alpha virt. eigenvalues --    2.87351   2.87591   2.87730   2.87804   2.87864
 Alpha virt. eigenvalues --    2.87990   2.88806   2.89026   2.89119   2.89740
 Alpha virt. eigenvalues --    2.89792   2.90124   2.90297   2.90854   2.91120
 Alpha virt. eigenvalues --    2.91297   2.91722   2.92205   2.92264   2.92344
 Alpha virt. eigenvalues --    2.92563   2.93077   2.93249   2.93336   2.93641
 Alpha virt. eigenvalues --    2.93984   2.94021   2.94772   2.95075   2.95524
 Alpha virt. eigenvalues --    2.96288   2.96443   2.96887   2.97116   2.97369
 Alpha virt. eigenvalues --    2.97662   2.97776   2.98061   2.98163   2.98451
 Alpha virt. eigenvalues --    2.98546   2.99142   2.99433   2.99776   2.99862
 Alpha virt. eigenvalues --    3.00083   3.00295   3.00609   3.00824   3.01043
 Alpha virt. eigenvalues --    3.01187   3.01642   3.01987   3.02134   3.02668
 Alpha virt. eigenvalues --    3.03064   3.03362   3.03498   3.04742   3.04939
 Alpha virt. eigenvalues --    3.05115   3.05274   3.05531   3.05729   3.06130
 Alpha virt. eigenvalues --    3.06516   3.06820   3.07158   3.08071   3.08461
 Alpha virt. eigenvalues --    3.08901   3.09731   3.10375   3.10726   3.10984
 Alpha virt. eigenvalues --    3.11839   3.12418   3.12468   3.12789   3.12866
 Alpha virt. eigenvalues --    3.12994   3.13603   3.14041   3.14250   3.14570
 Alpha virt. eigenvalues --    3.15061   3.15122   3.16383   3.16737   3.17531
 Alpha virt. eigenvalues --    3.17934   3.18206   3.18294   3.18466   3.18702
 Alpha virt. eigenvalues --    3.18944   3.19135   3.19284   3.19522   3.19752
 Alpha virt. eigenvalues --    3.20612   3.20770   3.21232   3.21887   3.21964
 Alpha virt. eigenvalues --    3.22313   3.22480   3.22634   3.22742   3.23897
 Alpha virt. eigenvalues --    3.24213   3.24435   3.24771   3.25405   3.25969
 Alpha virt. eigenvalues --    3.26584   3.27009   3.27124   3.27460   3.27498
 Alpha virt. eigenvalues --    3.28427   3.28913   3.29199   3.29773   3.31556
 Alpha virt. eigenvalues --    3.31867   3.33914   3.34889   3.35580   3.38250
 Alpha virt. eigenvalues --    3.38448   3.39834   3.41848   3.46304   3.46470
 Alpha virt. eigenvalues --    3.49065   3.49853   3.52342   3.52466   3.53434
 Alpha virt. eigenvalues --    3.54858   3.55661   3.56347   3.56711   3.56894
 Alpha virt. eigenvalues --    3.57726   3.58137   3.59778   3.60414   3.62828
 Alpha virt. eigenvalues --    3.65001   3.65167   3.65381   3.65904   3.66153
 Alpha virt. eigenvalues --    3.66680   3.67335   3.67972   3.68505   3.68833
 Alpha virt. eigenvalues --    3.69524   3.70259   3.70348   3.70694   3.72193
 Alpha virt. eigenvalues --    3.72484   3.72760   3.73072   3.73213   3.74035
 Alpha virt. eigenvalues --    3.74649   3.75124   3.75482   3.76904   3.77490
 Alpha virt. eigenvalues --    3.78704   3.88357   3.91813   3.92003
          Condensed to atoms (all electrons):
 Mulliken charges:
               1
     1  C    0.012446
     2  C    0.048709
     3  O   -0.301892
     4  H    0.036111
     5  H    0.020957
     6  H    0.058626
     7  N   -0.147579
     8  C    0.043650
     9  C    0.090489
    10  O   -0.224284
    11  C    0.074839
    12  C    0.172239
    13  O   -0.300965
    14  O   -0.615421
    15  H    0.133308
    16  H    0.013531
    17  H    0.000142
    18  H    0.038135
    19  N   -0.168653
    20  C    0.140223
    21  C    0.076098
    22  O   -0.242533
    23  C    0.004215
    24  C   -0.041735
    25  C   -0.015651
    26  C    0.010463
    27  N    0.036957
    28  H    0.135327
    29  H    0.005940
    30  H    0.036540
    31  H    0.017131
    32  H   -0.014523
    33  H    0.020138
    34  H    0.053489
    35  H    0.035109
    36  H    0.077294
    37  H    0.070037
    38  H    0.188447
    39  H    0.198111
    40  H    0.204200
    41  N   -0.186868
    42  C    0.138350
    43  C    0.122846
    44  O   -0.282612
    45  C    0.062145
    46  C    0.129673
    47  O   -0.351061
    48  O   -0.510806
    49  H    0.119726
    50  H    0.004850
    51  H   -0.031421
    52  H    0.046216
    53  N   -0.170382
    54  C    0.209854
    55  C    0.054878
    56  O   -0.276394
    57  H    0.136553
    58  H   -0.001404
    59  H    0.020790
    60  N   -0.191947
    61  C    0.117089
    62  C    0.079657
    63  O   -0.283766
    64  C    0.097393
    65  C    0.110490
    66  O   -0.462913
    67  O   -0.241306
    68  H    0.166052
    69  H    0.024070
    70  H    0.010155
    71  H    0.015359
    72  N   -0.204450
    73  C    0.205760
    74  C    0.054904
    75  O   -0.304312
    76  H    0.131934
    77  H    0.030574
    78  H    0.021952
    79  N   -0.161642
    80  C    0.125016
    81  C    0.089600
    82  O   -0.283564
    83  C    0.168023
    84  C    0.024750
    85  O   -0.300711
    86  H    0.163336
    87  H   -0.005693
    88  H   -0.055536
    89  H    0.173703
    90  H   -0.024136
    91  H    0.043466
    92  H   -0.000254
    93  N   -0.172617
    94  C    0.169628
    95  C    0.087537
    96  O   -0.291630
    97  C   -0.104625
    98  C    0.007138
    99  C    0.021627
   100  C    0.006344
   101  H    0.134248
   102  H    0.013521
   103  H   -0.006042
   104  H    0.021042
   105  H   -0.012580
   106  H    0.000852
   107  H    0.001626
   108  H    0.038876
   109  H    0.004937
   110  H    0.008433
   111  H    0.015727
   112  N   -0.160388
   113  C    0.134495
   114  C    0.110684
   115  O   -0.259999
   116  C    0.073977
   117  C   -0.013373
   118  O   -0.322747
   119  H    0.149910
   120  H    0.037000
   121  H   -0.029041
   122  H    0.204414
   123  H    0.004905
   124  H    0.022956
   125  H    0.087522
   126  N   -0.177709
   127  C    0.159390
   128  C    0.090638
   129  O   -0.251503
   130  C    0.067180
   131  C    0.018873
   132  O   -0.317684
   133  H    0.122792
   134  H    0.030856
   135  H    0.016332
   136  H    0.184477
   137  H    0.037511
   138  H    0.016650
   139  H    0.027800
   140  N   -0.168124
   141  C    0.139944
   142  C    0.079817
   143  O   -0.258825
   144  C   -0.013313
   145  C   -0.006723
   146  C   -0.039343
   147  C    0.017200
   148  N    0.072357
   149  H    0.122708
   150  H    0.022398
   151  H   -0.004258
   152  H    0.016525
   153  H    0.040275
   154  H    0.004688
   155  H    0.053117
   156  H    0.023638
   157  H    0.081683
   158  H    0.069335
   159  H    0.162703
   160  H    0.145192
   161  H    0.155315
   162  N   -0.187490
   163  C    0.148020
   164  C    0.081764
   165  O   -0.287469
   166  C   -0.054587
   167  C    0.147741
   168  C    0.104160
   169  O   -0.321026
   170  O   -0.553339
   171  H    0.142334
   172  H   -0.026161
   173  H    0.035332
   174  H    0.017770
   175  H   -0.063998
   176  H   -0.016175
   177  N   -0.191415
   178  C    0.128683
   179  H    0.033539
   180  H    0.013539
   181  H    0.021799
   182  H    0.145546
   183  Ca   1.339719
   184  O   -0.281359
   185  H    0.128140
   186  H    0.159217
   187  O   -0.251641
   188  H    0.167093
   189  H    0.146346
 Sum of Mulliken charges =  -0.00000
 Mulliken charges with hydrogens summed into heavy atoms:
               1
     1  C    0.128139
     2  C    0.048709
     3  O   -0.301892
     7  N   -0.014271
     8  C    0.057181
     9  C    0.090489
    10  O   -0.224284
    11  C    0.113116
    12  C    0.172239
    13  O   -0.300965
    14  O   -0.615421
    19  N   -0.033326
    20  C    0.146163
    21  C    0.076098
    22  O   -0.242533
    23  C    0.057885
    24  C   -0.036120
    25  C    0.072947
    26  C    0.157795
    27  N    0.627715
    41  N   -0.067141
    42  C    0.143200
    43  C    0.122846
    44  O   -0.282612
    45  C    0.076941
    46  C    0.129673
    47  O   -0.351061
    48  O   -0.510806
    53  N   -0.033829
    54  C    0.229240
    55  C    0.054878
    56  O   -0.276394
    60  N   -0.025896
    61  C    0.141159
    62  C    0.079657
    63  O   -0.283766
    64  C    0.122907
    65  C    0.110490
    66  O   -0.462913
    67  O   -0.241306
    72  N   -0.072515
    73  C    0.258286
    74  C    0.054904
    75  O   -0.304312
    79  N    0.001694
    80  C    0.119324
    81  C    0.089600
    82  O   -0.283564
    83  C    0.112487
    84  C    0.043827
    85  O   -0.127008
    93  N   -0.038370
    94  C    0.183150
    95  C    0.087537
    96  O   -0.291630
    97  C   -0.110668
    98  C    0.015600
    99  C    0.062981
   100  C    0.035440
   112  N   -0.010479
   113  C    0.171494
   114  C    0.110684
   115  O   -0.259999
   116  C    0.044936
   117  C    0.102011
   118  O   -0.118333
   126  N   -0.054917
   127  C    0.190246
   128  C    0.090638
   129  O   -0.251503
   130  C    0.083512
   131  C    0.100834
   132  O   -0.133207
   140  N   -0.045416
   141  C    0.162342
   142  C    0.079817
   143  O   -0.258825
   144  C   -0.001046
   145  C    0.038240
   146  C    0.037413
   147  C    0.168217
   148  N    0.535567
   162  N   -0.045156
   163  C    0.121860
   164  C    0.081764
   165  O   -0.287469
   166  C   -0.001486
   167  C    0.067567
   168  C    0.104160
   169  O   -0.321026
   170  O   -0.553339
   177  N   -0.045869
   178  C    0.197559
   183  Ca   1.339719
   184  O    0.005998
   187  O    0.061797
 DipInt: DoE/N= T F RetVal/Mat= T F Init=T NMatP=  1 IDeriv=0 Min/MaxMlt=  0  4
 Entering OneElI...
 OneElI was handed  1333067103 working-precision words.
 Multipole integrals L=0 to 4 MinM= 0 MaxM= 0.
 Requested accuracy = 0.1000D-12
 ShPair: Thresh= 1.00D-13 NBox=     0 BxSize= 0.00D+00 RnKept= 2.55D+01
         NSMCal=               367653 NSMKep=              170713
 PrmmSu-InSpLW:  IPartL=    0 NPrtUS=    1 NPrtUL=    1 DoSpLW=F IThBeg=    0 IThEnd=    0 NThAct=    1.
 PrsmSu:  NPrtUS=   1 ThrOK=F IAlg=1 NPAlg=1 LenDen=           0 ISkipM=0 DoSpLW=F IThBeg=    0 IThEnd=    0.
 Prism:   IPart=     0 DynPar=F LinDyn=F Incr=         512.
 PRISM was handed  1322247176 working-precision words and170713 shell-pairs
 IPart=  0 NShTot=      170713 NBatch=         380 AvBLen=       449.2
 PrsmSu-ThDecC:  IPartSL=    0    0 NPrtUSL=    1    1 IThBeg=    0 IThEnd=    0 CPU=   -1 GPU=   -1 NThAct=    1.
 PrSmSu:  NxtVal=            513.
 Electronic moments (au):
       -750.00000000         23.28244017         14.04451891          1.58329854
     -57295.43312029     -31544.17630307     -15647.56341384         21.77752740
       -148.98585044         41.36089975    -127036.37719161     -44601.82312712
      -2324.61753609      35763.38556620      44552.06028569      76900.12586341
[...]
 **** Fit       0.005878
 **** Fit       0.004949
 **** Fit       0.004799
 **** Fit       0.003062
 **** Fit       0.002263
 **** Fit       0.001539
 **** Fit       0.005333
 **** Fit       0.005023
 **** Fit       0.005973
 **** Fit       0.005511
 **** Fit       0.005168
 **** Fit       0.004041
 **** Fit      -0.000638
 **** Fit      -0.002142
 **** Fit      -0.003454
 **** Fit       0.005193
 **** Fit       0.004611
 **** Fit       0.004231
 **** Fit      -0.005108
 **** Fit      -0.007829
 **** Fit       0.004074
 **** Fit       0.003381
 **** Fit       0.002986
 **** Fit       0.002430
 **** Fit       0.001663
 **** Fit       0.000123
 **** Fit      -0.000727
 **** Fit      -0.003073
 **** Fit      -0.004091
 **** Fit      -0.007835
 **** Fit      -0.009011
 **** Fit       0.004412
 **** Fit       0.004044
 **** Fit       0.003424
 **** Fit       0.003995
 **** Fit       0.003882
 **** Fit       0.003634
 **** Fit       0.003123
 **** Fit       0.002251
 **** Fit       0.000979
 **** Fit       0.003117
 **** Fit       0.003107
 **** Fit       0.002958
 **** Fit       0.002545
 **** Fit       0.001748
 **** Fit       0.000450
 **** Fit      -0.001448
 **** Fit       0.003129
 **** Fit       0.001910
 **** Fit       0.002003
 **** Fit       0.001953
 **** Fit       0.001645
 **** Fit       0.000968
 **** Fit      -0.000205
 **** Fit      -0.002032
 **** Fit      -0.004700
 **** Fit      -0.008382
 **** Fit       0.001819
 **** Fit       0.001801
 **** Fit       0.000240
 **** Fit       0.000456
 **** Fit       0.000492
 **** Fit       0.000228
 **** Fit      -0.000456
 **** Fit      -0.001698
 **** Fit      -0.003690
 **** Fit      -0.006715
 **** Fit      -0.011179
 **** Fit      -0.000156
 **** Fit      -0.000018
 **** Fit      -0.002068
 **** Fit      -0.001686
 **** Fit      -0.001534
 **** Fit      -0.001737
 **** Fit      -0.002409
 **** Fit      -0.003685
 **** Fit      -0.005758
 **** Fit      -0.008939
 **** Fit      -0.013745
 **** Fit      -0.002965
 **** Fit      -0.002904
 **** Fit      -0.002534
 **** Fit      -0.005249
 **** Fit      -0.004612
 **** Fit      -0.004304
 **** Fit      -0.004453
 **** Fit      -0.005173
 **** Fit      -0.006594
 **** Fit      -0.008905
 **** Fit      -0.012438
 **** Fit      -0.007223
 **** Fit      -0.006797
 **** Fit      -0.006049
 **** Fit      -0.009614
 **** Fit      -0.008542
 **** Fit      -0.008014
 **** Fit      -0.008171
 **** Fit      -0.009131
 **** Fit      -0.011026
 **** Fit      -0.014069
 **** Fit      -0.018677
 **** Fit      -0.013558
 **** Fit      -0.012479
 **** Fit      -0.011025
 **** Fit      -0.015552
 **** Fit      -0.013749
 **** Fit      -0.012903
 **** Fit      -0.013156
 **** Fit      -0.014604
 **** Fit      -0.017360
 **** Fit      -0.021640
 **** Fit      -0.020535
 **** Fit      -0.019242
 **** Fit      -0.019681
 **** Fit      -0.021865
 **** Fit      -0.027141
 **** Fit       0.010013
 **** Fit       0.009233
 **** Fit       0.009940
 **** Fit       0.010842
 **** Fit       0.010767
 **** Fit       0.009786
 **** Fit       0.009156
 **** Fit       0.008445
 **** Fit       0.008790
 **** Fit       0.009493
 **** Fit       0.010530
 **** Fit       0.011538
 **** Fit       0.011949
 **** Fit       0.011475
 **** Fit       0.010402
 **** Fit       0.009316
 **** Fit       0.008623
 **** Fit       0.008351
 **** Fit       0.008324
 **** Fit       0.007663
 **** Fit       0.007728
 **** Fit       0.007993
 **** Fit       0.008575
 **** Fit       0.009526
 **** Fit       0.010749
 **** Fit       0.011947
 **** Fit       0.012722
 **** Fit       0.012785
 **** Fit       0.012113
 **** Fit       0.010954
 **** Fit       0.009693
 **** Fit       0.008653
 **** Fit       0.007997
 **** Fit       0.007717
 **** Fit       0.007669
 **** Fit       0.006611
 **** Fit       0.006723
 **** Fit       0.007160
 **** Fit       0.008015
 **** Fit       0.009289
 **** Fit       0.010817
 **** Fit       0.012275
 **** Fit       0.013285
 **** Fit       0.013586
 **** Fit       0.013118
 **** Fit       0.012028
 **** Fit       0.010625
 **** Fit       0.009243
 **** Fit       0.008123
 **** Fit       0.007386
 **** Fit       0.007053
 **** Fit       0.004731
 **** Fit       0.004941
 **** Fit       0.005657
 **** Fit       0.006957
 **** Fit       0.008757
 **** Fit       0.010764
 **** Fit       0.012544
 **** Fit       0.013699
 **** Fit       0.014019
 **** Fit       0.013491
 **** Fit       0.012276
 **** Fit       0.010700
 **** Fit       0.009128
 **** Fit       0.007815
 **** Fit       0.006876
 **** Fit       0.006359
 **** Fit       0.001328
 **** Fit       0.001654
 **** Fit       0.002761
 **** Fit       0.004688
 **** Fit       0.007219
 **** Fit       0.009886
 **** Fit       0.012128
 **** Fit       0.013534
 **** Fit       0.013971
 **** Fit       0.013469
 **** Fit       0.012184
 **** Fit       0.010466
 **** Fit       0.008731
 **** Fit       0.007290
 **** Fit      -0.004694
 **** Fit       0.006802
 **** Fit       0.010158
 **** Fit       0.012301
 **** Fit       0.013155
 **** Fit       0.012821
 **** Fit       0.011466
 **** Fit       0.009507
 **** Fit       0.007496
 **** Fit       0.011203
 **** Fit       0.011214
 **** Fit       0.009940
 **** Fit       0.007820
 **** Fit       0.008398
 **** Fit       0.008190
 **** Fit       0.006456
 **** Fit       0.006689
 **** Fit       0.005686
 **** Fit       0.005920
 **** Fit       0.006270
 **** Fit       0.006549
 **** Fit       0.006646
 **** Fit       0.006585
 **** Fit       0.004862
 **** Fit       0.005099
 **** Fit       0.005548
 **** Fit       0.006036
 **** Fit       0.006391
 **** Fit       0.006512
 **** Fit       0.006401
 **** Fit       0.006152
 **** Fit       0.003904
 **** Fit       0.004338
 **** Fit       0.004991
 **** Fit       0.005662
 **** Fit       0.006164
 **** Fit       0.006377
 **** Fit       0.006276
 **** Fit       0.005926
 **** Fit       0.005463
 **** Fit       0.002693
 **** Fit       0.003399
 **** Fit       0.004301
 **** Fit       0.005186
 **** Fit       0.005865
 **** Fit       0.006205
 **** Fit       0.006155
 **** Fit       0.005754
 **** Fit       0.005121
 **** Fit       0.004417
 **** Fit       0.001579
 **** Fit       0.002786
 **** Fit       0.004047
 **** Fit       0.005131
 **** Fit       0.005838
 **** Fit       0.006040
 **** Fit       0.005721
 **** Fit       0.004971
 **** Fit       0.003967
 **** Fit       0.002925
 **** Fit       0.000643
 **** Fit       0.002322
 **** Fit       0.003902
 **** Fit       0.005116
 **** Fit       0.005741
 **** Fit       0.005670
 **** Fit       0.004933
 **** Fit       0.003693
 **** Fit       0.002198
 **** Fit       0.000728
 **** Fit      -0.000791
 **** Fit       0.001420
 **** Fit       0.003435
 **** Fit       0.004876
 **** Fit       0.005453
 **** Fit       0.005046
 **** Fit       0.003742
 **** Fit       0.001805
 **** Fit      -0.000403
 **** Fit      -0.002490
 **** Fit      -0.004236
 **** Fit      -0.001218
 **** Fit       0.001741
 **** Fit       0.003971
 **** Fit       0.004931
 **** Fit       0.004355
 **** Fit       0.002349
 **** Fit      -0.000657
 **** Fit      -0.004052
 **** Fit      -0.007194
 **** Fit       0.001729
 **** Fit       0.000749
 **** Fit      -0.003907
 **** Fit      -0.075336
 **** Fit      -0.059333
 **** Fit      -0.106680
 **** Fit      -0.105070
 **** Fit      -0.101788
 **** Fit      -0.085769
 **** Fit      -0.073431
 **** Fit      -0.059802
 **** Fit      -0.090738
 **** Fit      -0.087898
 **** Fit      -0.082422
 **** Fit      -0.073861
 **** Fit      -0.062718
 **** Fit      -0.074880
 **** Fit      -0.075714
 **** Fit      -0.073065
 **** Fit       0.037166
 **** Fit       0.031530
 **** Fit       0.023313
 **** Fit       0.036463
 **** Fit       0.034230
 **** Fit       0.029276
 **** Fit       0.021289
 **** Fit       0.009779
 **** Fit       0.031719
 **** Fit       0.031994
 **** Fit       0.029867
 **** Fit       0.024866
 **** Fit       0.016529
 **** Fit       0.004374
 **** Fit      -0.012110
 **** Fit      -0.005182
 **** Fit       0.026687
 **** Fit       0.026751
 **** Fit       0.024421
 **** Fit       0.019196
 **** Fit       0.010636
 **** Fit      -0.001574
 **** Fit      -0.017565
 **** Fit      -0.047326
 **** Fit      -0.034799
 **** Fit      -0.024207
 **** Fit      -0.015594
 **** Fit      -0.008344
 **** Fit      -0.001739
 **** Fit       0.004661
 **** Fit       0.024732
 **** Fit       0.021061
 **** Fit       0.020650
 **** Fit       0.017509
 **** Fit       0.011129
 **** Fit       0.001198
 **** Fit      -0.012248
 **** Fit      -0.028608
 **** Fit      -0.058042
 **** Fit      -0.046682
 **** Fit      -0.035325
 **** Fit      -0.024957
 **** Fit      -0.015959
 **** Fit      -0.008152
 **** Fit      -0.001156
 **** Fit       0.005258
 **** Fit       0.011019
 **** Fit       0.015818
 **** Fit       0.019292
 **** Fit       0.014830
 **** Fit       0.013806
 **** Fit       0.009721
 **** Fit       0.002203
 **** Fit      -0.008683
 **** Fit      -0.022191
 **** Fit      -0.036673
 **** Fit      -0.049714
 **** Fit      -0.059128
 **** Fit      -0.064285
 **** Fit      -0.065880
 **** Fit      -0.064541
 **** Fit      -0.060358
 **** Fit      -0.053462
 **** Fit      -0.044518
 **** Fit      -0.034634
 **** Fit      -0.024900
 **** Fit      -0.015988
 **** Fit      -0.008079
 **** Fit      -0.001100
 **** Fit       0.004958
 **** Fit       0.009897
 **** Fit       0.013345
 **** Fit       0.007997
 **** Fit       0.006142
 **** Fit       0.000595
 **** Fit      -0.008585
 **** Fit      -0.020355
 **** Fit      -0.032575
 **** Fit      -0.042643
 **** Fit      -0.048835
 **** Fit      -0.050877
 **** Fit      -0.049106
 **** Fit      -0.043958
 **** Fit      -0.036253
 **** Fit      -0.027262
 **** Fit      -0.018236
 **** Fit      -0.009972
 **** Fit      -0.002846
 **** Fit       0.002852
 **** Fit       0.006673
 **** Fit       0.000547
 **** Fit      -0.002698
 **** Fit      -0.010863
 **** Fit      -0.021900
 **** Fit      -0.031866
 **** Fit      -0.037281
 **** Fit      -0.037003
 **** Fit      -0.031726
 **** Fit      -0.023361
 **** Fit      -0.014301
 **** Fit      -0.006426
 **** Fit      -0.001060
 **** Fit      -0.007569
 **** Fit      -0.013480
 **** Fit      -0.023308
 **** Fit      -0.026191
 **** Fit      -0.019736
 **** Fit      -0.010895
 **** Fit      -0.016438
 **** Fit       0.024088
 **** Fit       0.015703
 **** Fit       0.004881
 **** Fit      -0.008961
 **** Fit       0.030246
 **** Fit       0.024394
 **** Fit       0.016112
 **** Fit       0.004716
 **** Fit      -0.010460
 **** Fit       0.027020
 **** Fit       0.021228
 **** Fit       0.012295
 **** Fit      -0.000530
 **** Fit       0.015435
 **** Fit       0.005510
 **** Fit      -0.008804
 **** Fit       0.006250
 **** Fit      -0.006379
 **** Fit      -0.029254
 **** Fit      -0.034490
 **** Fit      -0.024900
 **** Fit      -0.067300
 **** Fit      -0.061699
 **** Fit      -0.056319
 **** Fit      -0.050126
 **** Fit      -0.042752
 **** Fit      -0.034583
 **** Fit      -0.026270
 **** Fit      -0.018309
 **** Fit      -0.010995
 **** Fit      -0.004565
 **** Fit      -0.060272
 **** Fit      -0.053947
 **** Fit      -0.047839
 **** Fit      -0.041372
 **** Fit      -0.034421
 **** Fit      -0.027238
 **** Fit      -0.020200
 **** Fit      -0.013640
 **** Fit      -0.007833
 **** Fit      -0.003071
 **** Fit      -0.059676
 **** Fit      -0.052076
 **** Fit      -0.045271
 **** Fit      -0.038639
 **** Fit      -0.031903
 **** Fit      -0.025137
 **** Fit      -0.018623
 **** Fit      -0.012686
 **** Fit      -0.007649
 **** Fit      -0.003829
 **** Fit      -0.001489
 **** Fit      -0.004444
 **** Fit      -0.006053
 **** Fit      -0.059754
 **** Fit      -0.051477
 **** Fit      -0.044076
 **** Fit      -0.037176
 **** Fit      -0.030485
 **** Fit      -0.023987
 **** Fit      -0.017905
 **** Fit      -0.012568
 **** Fit      -0.008326
 **** Fit      -0.005482
 **** Fit      -0.004198
 **** Fit      -0.008765
 **** Fit      -0.010935
 **** Fit      -0.063841
 **** Fit      -0.060798
 **** Fit      -0.054306
 **** Fit      -0.046749
 **** Fit      -0.039304
 **** Fit      -0.032199
 **** Fit      -0.025466
 **** Fit      -0.019324
 **** Fit      -0.014181
 **** Fit      -0.010495
 **** Fit      -0.008630
 **** Fit      -0.014193
 **** Fit      -0.017889
 **** Fit      -0.046672
 **** Fit      -0.048889
 **** Fit      -0.044868
 **** Fit      -0.037868
 **** Fit      -0.030250
 **** Fit      -0.023149
 **** Fit      -0.017485
 **** Fit      -0.014239
 **** Fit      -0.020634
 **** Fit      -0.027142
 **** Fit      -0.035968
 **** Fit      -0.036064
 **** Fit      -0.028904
 **** Fit      -0.021962
 **** Fit      -0.027961
 **** Fit      -0.008710
 **** Fit      -0.016885
 **** Fit      -0.009627
 **** Fit      -0.025759
 **** Fit      -0.017953
 **** Fit      -0.010844
 **** Fit      -0.004189
 **** Fit      -0.014808
 **** Fit      -0.008301
 **** Fit      -0.005947
 -----------------------------------------------------------------
 Leave Link  602 at Thu Feb 20 21:43:40 2020, MaxMem=  1342177280 cpu:             126.4 elap:               2.7

 Test job not archived.
 1\1\GINC-C483-024\SP\RB3LYP\SVP\C54H93Ca1N15O26\PENGZHI\20-Feb-2020\0\
 \#b3lyp/svp scf=(tight,noincore) Test #IOP(5/87=12) Density=Current Po
 p=(MK,readradii) iop(6/33=2) iop(6/42=6)\\loop1.cluster0\\0,1\C,0,71.0
 8307,43.37376,25.79142\C,0,72.12769,42.77107,24.9017\O,0,71.97832,41.6
 392,24.47393\H,0,70.1915,42.71825,25.86826\H,0,71.51417,43.5217,26.804
 95\H,0,70.7758,44.3615,25.38644\N,0,73.22319,43.50652,24.58022\C,0,74.
 3398,43.04329,23.75772\C,0,75.32659,42.29111,24.64216\O,0,76.42903,42.
 76294,24.88927\C,0,74.91695,44.29172,23.05145\C,0,76.22294,44.13088,22
 .34091\O,0,77.16014,44.83364,22.67455\O,0,76.40139,43.25986,21.34175\H
 ,0,73.25788,44.47368,24.93823\H,0,73.99708,42.35792,22.95006\H,0,75.08
 959,45.07856,23.81539\H,0,74.15752,44.66614,22.33104\N,0,74.97383,41.0
 8075,25.14996\C,0,75.82643,40.26129,25.99894\C,0,77.09715,39.87049,25.
 26078\O,0,78.17305,40.03085,25.81336\C,0,75.02908,39.01764,26.4632\C,0
 ,73.88258,39.4433,27.4071\C,0,72.96206,38.27223,27.77118\C,0,71.96378,
 38.64876,28.88234\N,0,70.92537,39.57853,28.43051\H,0,74.05299,40.70364
 ,24.89476\H,0,76.11429,40.82009,26.9196\H,0,75.68927,38.31996,27.02596
 \H,0,74.62931,38.4784,25.57641\H,0,73.26843,40.24455,26.95169\H,0,74.3
 4716,39.84941,28.33382\H,0,73.59325,37.44417,28.15563\H,0,72.41884,37.
 90884,26.86943\H,0,72.52248,39.08639,29.73985\H,0,71.46779,37.72139,29
 .24213\H,0,70.32838,39.83649,29.24978\H,0,71.33173,40.45458,28.03486\H
 ,0,70.32195,39.11183,27.71492\N,0,77.03808,39.34643,24.00127\C,0,78.24
 971,38.92599,23.28302\C,0,79.13544,40.08213,22.8109\O,0,80.29141,39.82
 572,22.49041\C,0,77.91186,37.90257,22.18185\C,0,76.90937,38.36568,21.1
 7757\O,0,76.32665,37.54638,20.48724\O,0,76.61588,39.66722,21.05907\H,0
 ,76.11446,39.20573,23.56996\H,0,78.86252,38.34719,24.00862\H,0,77.4650
 9,37.0275,22.69966\H,0,78.82383,37.55617,21.64961\N,0,78.72009,41.3824
 ,22.83582\C,0,79.66111,42.49193,22.72002\C,0,80.17358,42.79778,21.3218
 6\O,0,81.32896,42.54861,21.02586\H,0,77.74763,41.59185,23.10557\H,0,80
 .50947,42.30197,23.4084\H,0,79.17978,43.41827,23.09219\N,0,79.36172,43
 .45223,20.45478\C,0,79.73061,43.93154,19.13292\C,0,79.12009,45.32145,1
 8.83129\O,0,79.25492,45.77575,17.6999\C,0,79.30767,42.87321,18.08726\C
 ,0,77.92905,42.29823,18.29955\O,0,76.88193,43.09575,18.52379\O,0,77.77
 22,41.08975,18.34311\H,0,78.42026,43.63399,20.74646\H,0,80.83104,44.04
 758,19.03749\H,0,80.01471,42.01812,18.15115\H,0,79.41088,43.30307,17.0
 6773\N,0,78.47613,46.07836,19.7788\C,0,77.87955,47.37384,19.47507\C,0,
 76.62946,47.27646,18.61821\O,0,76.19861,48.28892,18.0887\H,0,78.43434,
 45.76277,20.75506\H,0,78.64125,48.03165,19.00329\H,0,77.55521,47.87122
 ,20.41657\N,0,75.95514,46.09584,18.50264\C,0,74.66387,45.97371,17.8290
 3\C,0,73.68323,45.14395,18.65458\O,0,74.08187,44.20908,19.33202\C,0,74
 .7652,45.41695,16.36526\C,0,74.45802,46.50594,15.34766\O,0,76.03643,44
 .92243,16.03648\H,0,76.31133,45.28245,19.00905\H,0,74.18999,46.97793,1
 7.79003\H,0,73.99101,44.6327,16.1951\H,0,76.26954,44.23618,16.69339\H,
 0,73.45389,46.93984,15.53647\H,0,75.23134,47.29982,15.40878\H,0,74.466
 95,46.06707,14.32642\N,0,72.34874,45.40804,18.55279\C,0,71.29623,44.63
 441,19.20523\C,0,70.49074,43.94887,18.10188\O,0,69.9889,44.62639,17.21
 601\C,0,70.4034,45.58588,20.06604\C,0,71.2055,46.18444,21.25514\C,0,69
 .12825,44.8719,20.55993\C,0,70.42308,47.25854,22.02151\H,0,72.05403,46
 .1851,17.9433\H,0,71.71566,43.8572,19.88105\H,0,70.0774,46.42419,19.41
 216\H,0,72.1211,46.67313,20.86088\H,0,71.5216,45.38677,21.96585\H,0,69
 .37612,44.00422,21.20551\H,0,68.46608,45.56588,21.11386\H,0,68.52621,4
 4.52404,19.69691\H,0,69.5607,46.8253,22.56826\H,0,71.08097,47.74492,22
 .77186\H,0,70.05683,48.03707,21.31853\N,0,70.2992,42.59683,18.12583\C,
 0,69.49277,41.87051,17.15381\C,0,68.08482,41.72232,17.69744\O,0,67.824
 47,42.153,18.8079\C,0,70.09158,40.45248,16.88241\C,0,71.55106,40.50645
 ,16.4183\O,0,69.96834,39.65528,18.03611\H,0,70.62102,42.07865,18.93611
 \H,0,69.44874,42.43812,16.20014\H,0,69.5017,39.97047,16.07539\H,0,70.7
 5063,39.05199,18.1339\H,0,71.89261,39.4835,16.14373\H,0,71.66402,41.16
 973,15.53905\H,0,72.18221,40.85285,17.25984\N,0,67.11652,41.10838,16.9
 693\C,0,65.7887,40.84076,17.51833\C,0,65.8737,39.86019,18.68978\O,0,65
 .14144,40.02076,19.65624\C,0,64.82313,40.31385,16.42775\C,0,64.52028,4
 1.41619,15.38631\O,0,65.35458,39.14921,15.83467\H,0,67.33854,40.80174,
 16.0103\H,0,65.34107,41.78795,17.89717\H,0,63.85389,40.06219,16.91173\
 H,0,65.10019,39.12126,14.87519\H,0,64.12478,42.32572,15.8887\H,0,65.42
 657,41.69194,14.80811\H,0,63.74095,41.06218,14.67752\N,0,66.73821,38.8
 0453,18.652\C,0,66.84811,37.81434,19.72547\C,0,67.39062,38.42557,21.01
 136\O,0,66.85891,38.15962,22.07921\C,0,67.69621,36.61246,19.23204\C,0,
 67.59024,35.39879,20.17727\C,0,67.91916,34.0565,19.49245\C,0,69.40298,
 33.74835,19.25216\N,0,70.14284,33.65295,20.51313\H,0,67.32643,38.68519
 ,17.81332\H,0,65.83148,37.40622,19.92116\H,0,68.75435,36.88538,19.0242
 3\H,0,67.22646,36.3105,18.27017\H,0,66.52171,35.30363,20.46281\H,0,68.
 16883,35.55117,21.11382\H,0,67.3677,33.99728,18.52723\H,0,67.52231,33.
 24002,20.13322\H,0,69.87854,34.49296,18.57774\H,0,69.44251,32.75713,18
 .74417\H,0,70.34683,34.60882,20.88143\H,0,69.59775,33.11011,21.22319\H
 ,0,71.0464,33.15411,20.34654\N,0,68.43649,39.29124,20.96224\C,0,68.987
 87,39.97063,22.13325\C,0,67.91288,40.82395,22.77257\O,0,67.66198,40.68
 535,23.96193\C,0,70.2159,40.80311,21.71506\C,0,71.32155,39.84912,21.21
 567\C,0,72.53663,40.55859,20.76838\O,0,72.48129,41.41397,19.90899\O,0,
 73.72087,40.25058,21.27482\H,0,68.82077,39.51561,20.04158\H,0,69.34931
 ,39.22748,22.8782\H,0,70.5938,41.38726,22.57219\H,0,69.92749,41.53423,
 20.9333\H,0,70.97146,39.26148,20.35608\H,0,71.6078,39.14188,22.02177\N
 ,0,67.18919,41.68803,22.0148\C,0,66.05898,42.42183,22.53268\H,0,65.261
 97,41.70841,22.83625\H,0,66.36234,43.04619,23.39654\H,0,65.64735,43.07
 785,21.73524\H,0,67.41568,41.78736,21.02384\Ca,0,75.11344,41.74008,20.
 54073\O,0,74.94553,39.28569,18.37188\H,0,74.73512,38.62001,17.67118\H,
 0,74.67556,38.84262,19.21304\O,0,74.50261,41.97086,17.04857\H,0,75.047
 52,41.47826,16.38569\H,0,73.72383,42.29333,16.53107\\Version=ES64L-G16
 RevA.03\State=1-A\HF=-5564.9579705\RMSD=2.317e-09\Dipole=-21.262636,-1
 4.777898,8.4463843\Quadrupole=-215.1534471,84.1009276,131.0525195,52.4
 207612,25.258848,16.4105463\PG=C01 [X(C54H93Ca1N15O26)]\\@


 THE PROBLEM WITH THE LADDER OF SUCCESS IS YOU CAN'T
 CLIMB IT WHILE YOU'RE TWIDDLING YOUR THUMBS.
 Job cpu time:       1 days 10 hours  8 minutes 33.0 seconds.
 Elapsed time:       0 days  0 hours 43 minutes  8.7 seconds.
 File lengths (MBytes):  RWF=   1684 Int=      0 D2E=      0 Chk=    189 Scr=      1
 Normal termination of Gaussian 16 at Thu Feb 20 21:43:45 2020.
